
     Program PWSCF v.7.1 starts on 26Nov2022 at  4:35:47 

     This program is part of the open-source Quantum ESPRESSO suite
     for quantum simulation of materials; please cite
         "P. Giannozzi et al., J. Phys.:Condens. Matter 21 395502 (2009);
         "P. Giannozzi et al., J. Phys.:Condens. Matter 29 465901 (2017);
         "P. Giannozzi et al., J. Chem. Phys. 152 154105 (2020);
          URL http://www.quantum-espresso.org", 
     in publications or presentations arising from this work. More details at
     http://www.quantum-espresso.org/quote

     Parallel version (MPI), running on     8 processors

     MPI processes distributed on     1 nodes
     482 MiB available memory on the printing compute node when the environment starts

     Waiting for input...
     Reading input from standard input

     Current dimensions of program PWSCF are:
     Max number of different atomic species (ntypx) = 10
     Max number of k-points (npk) =  40000
     Max angular momentum in pseudopotentials (lmaxx) =  4
     file Fe.pbe-spn-kjpaw_psl.0.2.1.UPF: wavefunction(s)  3D renormalized

     IMPORTANT: XC functional enforced from input :
     Exchange-correlation= PBE
                           (   1   4   3   4   0   0   0)
     Any further DFT definition will be discarded
     Please, verify this is what you really want

     Found identity + ( -0.5000 -0.5000  0.0000) symmetry
     This is a supercell, fractional translations are disabled
     Message from routine setup:
     using ibrav=0 with symmetry is DISCOURAGED, use correct ibrav instead

     R & G space division:  proc/nbgrp/npool/nimage =       8
     Subspace diagonalization in iterative solution of the eigenvalue problem:
     a serial algorithm will be used


     Parallelization info
     --------------------
     sticks:   dense  smooth     PW     G-vecs:    dense   smooth      PW
     Min         489     242     69                23091     8136    1221
     Max         491     243     70                23093     8141    1224
     Sum        3917    1941    553               184739    65117    9771

     Using Slab Decomposition



     bravais-lattice index     =            0
     lattice parameter (alat)  =      10.6864  a.u.
     unit-cell volume          =    1220.3782 (a.u.)^3
     number of atoms/cell      =           16
     number of atomic types    =            2
     number of electrons       =       232.00
     number of Kohn-Sham states=          139
     kinetic-energy cutoff     =      54.0000  Ry
     charge density cutoff     =     432.0000  Ry
     scf convergence threshold =      1.0E-08
     mixing beta               =       0.7000
     number of iterations used =            8  plain     mixing
     energy convergence thresh.=      1.0E-04
     force convergence thresh. =      1.0E-03
     press convergence thresh. =      5.0E-01
     Exchange-correlation= PBE
                           (   1   4   3   4   0   0   0)
     nstep                     =           50


     celldm(1)=  10.686401  celldm(2)=   0.000000  celldm(3)=   0.000000
     celldm(4)=   0.000000  celldm(5)=   0.000000  celldm(6)=   0.000000

     crystal axes: (cart. coord. in units of alat)
               a(1) = (   1.000000   0.000000   0.000000 )  
               a(2) = (   0.000000   1.000000   0.000000 )  
               a(3) = (   0.000000   0.000000   1.000000 )  

     reciprocal axes: (cart. coord. in units 2 pi/alat)
               b(1) = (  1.000000  0.000000  0.000000 )  
               b(2) = (  0.000000  1.000000  0.000000 )  
               b(3) = (  0.000000  0.000000  1.000000 )  


     PseudoPot. # 1 for Si read from file:
     ./Si.pbe-n-rrkjus_psl.1.0.0.UPF
     MD5 check sum: 0b0bb1205258b0d07b9f9672cf965d36
     Pseudo is Ultrasoft + core correction, Zval =  4.0
     Generated using "atomic" code by A. Dal Corso  v.5.1
     Using radial grid of 1141 points,  6 beta functions with: 
                l(1) =   0
                l(2) =   0
                l(3) =   1
                l(4) =   1
                l(5) =   2
                l(6) =   2
     Q(r) pseudized with 0 coefficients 


     PseudoPot. # 2 for Fe read from file:
     ./Fe.pbe-spn-kjpaw_psl.0.2.1.UPF
     MD5 check sum: e86618425769142926afa95317d90200
     Pseudo is Projector augmented-wave + core cor, Zval = 16.0
     Generated using "atomic" code by A. Dal Corso  v.5.0.99 svn rev. 10869
     Shape of augmentation charge: PSQ
     Using radial grid of 1191 points,  6 beta functions with: 
                l(1) =   0
                l(2) =   0
                l(3) =   1
                l(4) =   1
                l(5) =   2
                l(6) =   2
     Q(r) pseudized with 0 coefficients 


     atomic species   valence    mass     pseudopotential
        Si             4.00    28.08500     Si( 1.00)
        Fe            16.00    55.84500     Fe( 1.00)

     Starting magnetic structure 
     atomic species   magnetization
        Si           1.000
        Fe           1.000

     16 Sym. Ops., with inversion, found



   Cartesian axes

     site n.     atom                  positions (alat units)
         1           Fe  tau(   1) = (   0.5000000   0.5000000   0.5000000  )
         2           Fe  tau(   2) = (   0.5000000   1.0000000   1.0000000  )
         3           Fe  tau(   3) = (   1.0000000   0.5000000   1.0000000  )
         4           Fe  tau(   4) = (   1.0000000   1.0000000   0.5000000  )
         5           Fe  tau(   5) = (   0.2500000   0.2500000   0.2500000  )
         6           Fe  tau(   6) = (   0.2500000   0.7500000   0.7500000  )
         7           Fe  tau(   7) = (   0.7500000   0.2500000   0.7500000  )
         8           Fe  tau(   8) = (   0.7500000   0.7500000   0.2500000  )
         9           Fe  tau(   9) = (   0.7500000   0.7500000   0.7500000  )
        10           Fe  tau(  10) = (   0.7500000   0.2500000   0.2500000  )
        11           Fe  tau(  11) = (   0.2500000   0.7500000   0.2500000  )
        12           Fe  tau(  12) = (   0.2500000   0.2500000   0.7500000  )
        13           Si  tau(  13) = (   0.0000000   0.0000000   0.0000000  )
        14           Fe  tau(  14) = (   0.0000000   0.5000000   0.5000000  )
        15           Fe  tau(  15) = (   0.5000000   0.0000000   0.5000000  )
        16           Si  tau(  16) = (   0.5000000   0.5000000   0.0000000  )

     number of k points=    18  Marzari-Vanderbilt smearing, width (Ry)=  0.0050
                       cart. coord. in units 2pi/alat
        k(    1) = (   0.0000000   0.0000000   0.0000000), wk =   0.0080000
        k(    2) = (   0.0000000   0.0000000   0.2000000), wk =   0.0160000
        k(    3) = (   0.0000000   0.0000000   0.4000000), wk =   0.0160000
        k(    4) = (   0.0000000   0.2000000   0.2000000), wk =   0.0640000
        k(    5) = (   0.0000000   0.2000000   0.4000000), wk =   0.0640000
        k(    6) = (   0.0000000   0.4000000   0.4000000), wk =   0.0640000
        k(    7) = (   0.2000000   0.2000000   0.2000000), wk =   0.0640000
        k(    8) = (   0.2000000   0.2000000   0.4000000), wk =   0.0640000
        k(    9) = (   0.2000000   0.4000000   0.4000000), wk =   0.1280000
        k(   10) = (   0.4000000   0.4000000   0.4000000), wk =   0.0640000
        k(   11) = (   0.0000000   0.2000000   0.0000000), wk =   0.0320000
        k(   12) = (   0.0000000   0.4000000   0.0000000), wk =   0.0320000
        k(   13) = (   0.2000000   0.2000000   0.0000000), wk =   0.0320000
        k(   14) = (   0.2000000   0.4000000   0.0000000), wk =   0.0640000
        k(   15) = (   0.4000000   0.0000000   0.2000000), wk =   0.0640000
        k(   16) = (   0.4000000   0.4000000   0.0000000), wk =   0.0320000
        k(   17) = (   0.2000000   0.4000000   0.2000000), wk =   0.1280000
        k(   18) = (   0.4000000   0.4000000   0.2000000), wk =   0.0640000

     Dense  grid:   184739 G-vectors     FFT dimensions: (  72,  72,  72)

     Smooth grid:    65117 G-vectors     FFT dimensions: (  50,  50,  50)

     Estimated max dynamical RAM per process >     193.68 MB

     Estimated total dynamical RAM >       1.51 GB

     Check: negative core charge=   -0.000071
     Generating pointlists ...
     new r_m :   0.1786 (alat units)  1.9088 (a.u.) for type    1
     new r_m :   0.1786 (alat units)  1.9088 (a.u.) for type    2

     Initial potential from superposition of free atoms

     starting charge     231.9927, renormalised to     232.0000
     Starting wfcs are  190 randomized atomic wfcs
     Checking if some PAW data can be deallocated... 

     total cpu time spent up to now is       73.0 secs

     per-process dynamical memory:   124.6 Mb

     Self-consistent Calculation

     iteration #  1     ecut=    54.00 Ry     beta= 0.70
     Davidson diagonalization with overlap
     ethr =  1.00E-02,  avg # of iterations =  2.8

     negative rho (up, down):  0.000E+00 3.121E-03

     total cpu time spent up to now is      258.1 secs

     total energy              =   -4623.35276954 Ry
     estimated scf accuracy    <      59.08734743 Ry

     total magnetization       =    46.00 Bohr mag/cell
     absolute magnetization    =    60.79 Bohr mag/cell

     iteration #  2     ecut=    54.00 Ry     beta= 0.70
     Davidson diagonalization with overlap
     ethr =  1.00E-02,  avg # of iterations =  3.5

     negative rho (up, down):  0.000E+00 2.221E-03

     total cpu time spent up to now is      430.2 secs

     total energy              =   -4623.82262341 Ry
     estimated scf accuracy    <      21.55594570 Ry

     total magnetization       =    39.52 Bohr mag/cell
     absolute magnetization    =    44.43 Bohr mag/cell

     iteration #  3     ecut=    54.00 Ry     beta= 0.70
     Davidson diagonalization with overlap
     ethr =  9.29E-03,  avg # of iterations =  5.4

     negative rho (up, down):  0.000E+00 1.827E-03

     total cpu time spent up to now is      652.4 secs

     total energy              =   -4611.25856009 Ry
     estimated scf accuracy    <     192.42831320 Ry

     total magnetization       =    15.99 Bohr mag/cell
     absolute magnetization    =    21.05 Bohr mag/cell

     iteration #  4     ecut=    54.00 Ry     beta= 0.70
     Davidson diagonalization with overlap
     ethr =  9.29E-03,  avg # of iterations =  5.7

     negative rho (up, down):  0.000E+00 1.565E-03

     total cpu time spent up to now is      901.8 secs

     total energy              =   -4624.95049491 Ry
     estimated scf accuracy    <     118.78837582 Ry

     total magnetization       =    17.45 Bohr mag/cell
     absolute magnetization    =    21.05 Bohr mag/cell

     iteration #  5     ecut=    54.00 Ry     beta= 0.70
     Davidson diagonalization with overlap
     ethr =  9.29E-03,  avg # of iterations =  4.1

     negative rho (up, down):  0.000E+00 1.529E-03

     total cpu time spent up to now is     1104.4 secs

     total energy              =   -4630.80495793 Ry
     estimated scf accuracy    <      20.37451495 Ry

     total magnetization       =    21.96 Bohr mag/cell
     absolute magnetization    =    24.11 Bohr mag/cell

     iteration #  6     ecut=    54.00 Ry     beta= 0.70
     Davidson diagonalization with overlap
     ethr =  8.78E-03,  avg # of iterations =  1.5

     negative rho (up, down):  0.000E+00 1.389E-03

     total cpu time spent up to now is     1239.2 secs

     total energy              =   -4631.64513409 Ry
     estimated scf accuracy    <      17.56480345 Ry

     total magnetization       =    19.46 Bohr mag/cell
     absolute magnetization    =    21.90 Bohr mag/cell

     iteration #  7     ecut=    54.00 Ry     beta= 0.70
     Davidson diagonalization with overlap
     ethr =  7.57E-03,  avg # of iterations =  1.0

     negative rho (up, down):  0.000E+00 1.282E-03

     total cpu time spent up to now is     1362.7 secs

     total energy              =   -4631.70800717 Ry
     estimated scf accuracy    <      19.13485126 Ry

     total magnetization       =    17.24 Bohr mag/cell
     absolute magnetization    =    20.12 Bohr mag/cell

     iteration #  8     ecut=    54.00 Ry     beta= 0.70
     Davidson diagonalization with overlap
     ethr =  7.57E-03,  avg # of iterations =  1.0

     negative rho (up, down):  0.000E+00 1.245E-03

     total cpu time spent up to now is     1489.1 secs

     total energy              =   -4632.52582781 Ry
     estimated scf accuracy    <       0.47901523 Ry

     total magnetization       =    25.45 Bohr mag/cell
     absolute magnetization    =    27.29 Bohr mag/cell

     iteration #  9     ecut=    54.00 Ry     beta= 0.70
     Davidson diagonalization with overlap
     ethr =  2.06E-04,  avg # of iterations =  2.4

     negative rho (up, down):  0.000E+00 1.264E-03

     total cpu time spent up to now is     1637.5 secs

     total energy              =   -4632.61779647 Ry
     estimated scf accuracy    <       0.25799967 Ry

     total magnetization       =    26.44 Bohr mag/cell
     absolute magnetization    =    28.38 Bohr mag/cell

     iteration # 10     ecut=    54.00 Ry     beta= 0.70
     Davidson diagonalization with overlap
     ethr =  1.11E-04,  avg # of iterations =  1.5

     negative rho (up, down):  0.000E+00 1.425E-03

     total cpu time spent up to now is     1776.0 secs

     total energy              =   -4632.64989701 Ry
     estimated scf accuracy    <       0.07512744 Ry

     total magnetization       =    27.65 Bohr mag/cell
     absolute magnetization    =    29.61 Bohr mag/cell

     iteration # 11     ecut=    54.00 Ry     beta= 0.70
     Davidson diagonalization with overlap
     ethr =  3.24E-05,  avg # of iterations =  5.0

     negative rho (up, down):  0.000E+00 1.615E-03

     total cpu time spent up to now is     1987.7 secs

     total energy              =   -4632.63678336 Ry
     estimated scf accuracy    <       0.78472418 Ry

     total magnetization       =    28.26 Bohr mag/cell
     absolute magnetization    =    30.28 Bohr mag/cell

     iteration # 12     ecut=    54.00 Ry     beta= 0.70
     Davidson diagonalization with overlap

! Ok no win for this one either
