
     Program PWSCF v.7.1 starts on 27Nov2022 at 14:36:28 

     This program is part of the open-source Quantum ESPRESSO suite
     for quantum simulation of materials; please cite
         "P. Giannozzi et al., J. Phys.:Condens. Matter 21 395502 (2009);
         "P. Giannozzi et al., J. Phys.:Condens. Matter 29 465901 (2017);
         "P. Giannozzi et al., J. Chem. Phys. 152 154105 (2020);
          URL http://www.quantum-espresso.org", 
     in publications or presentations arising from this work. More details at
     http://www.quantum-espresso.org/quote

     Parallel version (MPI), running on     8 processors

     MPI processes distributed on     1 nodes
     6001 MiB available memory on the printing compute node when the environment starts
 
     Waiting for input...
     Reading input from standard input

     Current dimensions of program PWSCF are:
     Max number of different atomic species (ntypx) = 10
     Max number of k-points (npk) =  40000
     Max angular momentum in pseudopotentials (lmaxx) =  4
     file Fe.pbe-spn-kjpaw_psl.0.2.1.UPF: wavefunction(s)  3D renormalized

     IMPORTANT: XC functional enforced from input :
     Exchange-correlation= PBE
                           (   1   4   3   4   0   0   0)
     Any further DFT definition will be discarded
     Please, verify this is what you really want

     Message from routine setup:
     using ibrav=0 with symmetry is DISCOURAGED, use correct ibrav instead
 
     R & G space division:  proc/nbgrp/npool/nimage =       8
     Subspace diagonalization in iterative solution of the eigenvalue problem:
     a serial algorithm will be used

 
     Parallelization info
     --------------------
     sticks:   dense  smooth     PW     G-vecs:    dense   smooth      PW
     Min         980     486    135                46225    16304    2350
     Max         981     487    136                46226    16307    2351
     Sum        7847    3895   1083               369801   130447   18805
 
     Using Slab Decomposition
 


     bravais-lattice index     =            0
     lattice parameter (alat)  =      10.6864  a.u.
     unit-cell volume          =    2440.7563 (a.u.)^3
     number of atoms/cell      =           32
     number of atomic types    =            2
     number of electrons       =       428.00
     number of Kohn-Sham states=          257
     kinetic-energy cutoff     =      54.0000  Ry
     charge density cutoff     =     432.0000  Ry
     scf convergence threshold =      1.0E-08
     mixing beta               =       0.7000
     number of iterations used =            8  plain     mixing
     energy convergence thresh.=      1.0E-04
     force convergence thresh. =      1.0E-03
     press convergence thresh. =      5.0E-01
     Exchange-correlation= PBE
                           (   1   4   3   4   0   0   0)
     nstep                     =           50


     GPU acceleration is ACTIVE.

     Message from routine print_cuda_info:
     High GPU oversubscription detected. Are you sure this is what you want?

     celldm(1)=  10.686401  celldm(2)=   0.000000  celldm(3)=   0.000000
     celldm(4)=   0.000000  celldm(5)=   0.000000  celldm(6)=   0.000000

     crystal axes: (cart. coord. in units of alat)
               a(1) = (   2.000000   0.000000   0.000000 )  
               a(2) = (   0.000000   1.000000   0.000000 )  
               a(3) = (   0.000000   0.000000   1.000000 )  

     reciprocal axes: (cart. coord. in units 2 pi/alat)
               b(1) = (  0.500000  0.000000  0.000000 )  
               b(2) = (  0.000000  1.000000  0.000000 )  
               b(3) = (  0.000000  0.000000  1.000000 )  


     PseudoPot. # 1 for Si read from file:
     ./Si.pbe-n-rrkjus_psl.1.0.0.UPF
     MD5 check sum: 0b0bb1205258b0d07b9f9672cf965d36
     Pseudo is Ultrasoft + core correction, Zval =  4.0
     Generated using "atomic" code by A. Dal Corso  v.5.1
     Using radial grid of 1141 points,  6 beta functions with: 
                l(1) =   0
                l(2) =   0
                l(3) =   1
                l(4) =   1
                l(5) =   2
                l(6) =   2
     Q(r) pseudized with 0 coefficients 


     PseudoPot. # 2 for Fe read from file:
     ./Fe.pbe-spn-kjpaw_psl.0.2.1.UPF
     MD5 check sum: e86618425769142926afa95317d90200
     Pseudo is Projector augmented-wave + core cor, Zval = 16.0
     Generated using "atomic" code by A. Dal Corso  v.5.0.99 svn rev. 10869
     Shape of augmentation charge: PSQ
     Using radial grid of 1191 points,  6 beta functions with: 
                l(1) =   0
                l(2) =   0
                l(3) =   1
                l(4) =   1
                l(5) =   2
                l(6) =   2
     Q(r) pseudized with 0 coefficients 


     atomic species   valence    mass     pseudopotential
        Si             4.00    28.08500     Si( 1.00)
        Fe            16.00    55.84500     Fe( 1.00)

     Starting magnetic structure 
     atomic species   magnetization
        Si           1.000
        Fe           1.000

     16 Sym. Ops., with inversion, found



   Cartesian axes

     site n.     atom                  positions (alat units)
         1           Fe  tau(   1) = (   0.5000000   0.5000000   0.5000000  )
         2           Fe  tau(   2) = (   0.5000000   1.0000000   1.0000000  )
         3           Fe  tau(   3) = (   1.0000000   0.5000000   1.0000000  )
         4           Fe  tau(   4) = (   1.0000000   1.0000000   0.5000000  )
         5           Fe  tau(   5) = (   0.2500000   0.2500000   0.2500000  )
         6           Fe  tau(   6) = (   0.2500000   0.7500000   0.7500000  )
         7           Fe  tau(   7) = (   0.7500000   0.2500000   0.7500000  )
         8           Fe  tau(   8) = (   0.7500000   0.7500000   0.2500000  )
         9           Fe  tau(   9) = (   0.7500000   0.7500000   0.7500000  )
        10           Fe  tau(  10) = (   0.7500000   0.2500000   0.2500000  )
        11           Fe  tau(  11) = (   0.2500000   0.7500000   0.2500000  )
        12           Fe  tau(  12) = (   0.2500000   0.2500000   0.7500000  )
        13           Fe  tau(  13) = (   0.0000000   0.0000000   0.0000000  )
        14           Si  tau(  14) = (   0.0000000   0.5000000   0.5000000  )
        15           Si  tau(  15) = (   0.5000000   0.0000000   0.5000000  )
        16           Si  tau(  16) = (   0.5000000   0.5000000   0.0000000  )
        17           Fe  tau(  17) = (   1.5000000   0.5000000   0.5000000  )
        18           Fe  tau(  18) = (   1.5000000   1.0000000   1.0000000  )
        19           Fe  tau(  19) = (   2.0000000   0.5000000   1.0000000  )
        20           Fe  tau(  20) = (   2.0000000   1.0000000   0.5000000  )
        21           Fe  tau(  21) = (   1.2500000   0.2500000   0.2500000  )
        22           Fe  tau(  22) = (   1.2500000   0.7500000   0.7500000  )
        23           Fe  tau(  23) = (   1.7500000   0.2500000   0.7500000  )
        24           Fe  tau(  24) = (   1.7500000   0.7500000   0.2500000  )
        25           Fe  tau(  25) = (   1.7500000   0.7500000   0.7500000  )
        26           Fe  tau(  26) = (   1.7500000   0.2500000   0.2500000  )
        27           Fe  tau(  27) = (   1.2500000   0.7500000   0.2500000  )
        28           Fe  tau(  28) = (   1.2500000   0.2500000   0.7500000  )
        29           Si  tau(  29) = (   1.0000000   0.0000000   0.0000000  )
        30           Si  tau(  30) = (   1.0000000   0.5000000   0.5000000  )
        31           Si  tau(  31) = (   1.5000000   0.0000000   0.5000000  )
        32           Si  tau(  32) = (   1.5000000   0.5000000   0.0000000  )

     number of k points=    18  Marzari-Vanderbilt smearing, width (Ry)=  0.0050
                       cart. coord. in units 2pi/alat
        k(    1) = (   0.0000000   0.0000000   0.0000000), wk =   0.0080000
        k(    2) = (   0.0000000   0.0000000   0.2000000), wk =   0.0320000
        k(    3) = (   0.0000000   0.0000000   0.4000000), wk =   0.0320000
        k(    4) = (   0.0000000   0.2000000   0.2000000), wk =   0.0320000
        k(    5) = (   0.0000000   0.2000000   0.4000000), wk =   0.0640000
        k(    6) = (   0.0000000   0.4000000   0.4000000), wk =   0.0320000
        k(    7) = (   0.1000000   0.0000000   0.0000000), wk =   0.0160000
        k(    8) = (   0.1000000   0.0000000   0.2000000), wk =   0.0640000
        k(    9) = (   0.1000000   0.0000000   0.4000000), wk =   0.0640000
        k(   10) = (   0.1000000   0.2000000   0.2000000), wk =   0.0640000
        k(   11) = (   0.1000000   0.2000000   0.4000000), wk =   0.1280000
        k(   12) = (   0.1000000   0.4000000   0.4000000), wk =   0.0640000
        k(   13) = (   0.2000000   0.0000000   0.0000000), wk =   0.0160000
        k(   14) = (   0.2000000   0.0000000   0.2000000), wk =   0.0640000
        k(   15) = (   0.2000000   0.0000000   0.4000000), wk =   0.0640000
        k(   16) = (   0.2000000   0.2000000   0.2000000), wk =   0.0640000
        k(   17) = (   0.2000000   0.2000000   0.4000000), wk =   0.1280000
        k(   18) = (   0.2000000   0.4000000   0.4000000), wk =   0.0640000

     Dense  grid:   369801 G-vectors     FFT dimensions: ( 144,  72,  72)

     Smooth grid:   130447 G-vectors     FFT dimensions: ( 100,  50,  50)

     Estimated max dynamical RAM per process >     549.28 MB

     Estimated total dynamical RAM >       4.29 GB

     Check: negative core charge=   -0.000063
     Generating pointlists ...
     new r_m :   0.1786 (alat units)  1.9088 (a.u.) for type    1
     new r_m :   0.1786 (alat units)  1.9088 (a.u.) for type    2

     Initial potential from superposition of free atoms

     starting charge     427.9851, renormalised to     428.0000
     Starting wfcs are  353 randomized atomic wfcs
     Checking if some PAW data can be deallocated... 

     total cpu time spent up to now is       59.5 secs

     Self-consistent Calculation

     iteration #  1     ecut=    54.00 Ry     beta= 0.70
     Davidson diagonalization with overlap
     ethr =  1.00E-02,  avg # of iterations =  2.7

     negative rho (up, down):  0.000E+00 6.187E-03

     total cpu time spent up to now is      207.2 secs

     total energy              =   -8291.97543711 Ry
     estimated scf accuracy    <     105.40193878 Ry

     total magnetization       =    86.00 Bohr mag/cell
     absolute magnetization    =   112.42 Bohr mag/cell

     iteration #  2     ecut=    54.00 Ry     beta= 0.70
     Davidson diagonalization with overlap
     ethr =  1.00E-02,  avg # of iterations =  3.5

     negative rho (up, down):  0.000E+00 3.722E-03

     total cpu time spent up to now is      348.6 secs

     total energy              =   -8291.06918789 Ry
     estimated scf accuracy    <      54.23973988 Ry

     total magnetization       =    67.74 Bohr mag/cell
     absolute magnetization    =    74.31 Bohr mag/cell

     iteration #  3     ecut=    54.00 Ry     beta= 0.70
     Davidson diagonalization with overlap
     ethr =  1.00E-02,  avg # of iterations =  4.7

     negative rho (up, down):  0.000E+00 3.248E-03

     total cpu time spent up to now is      524.7 secs

     total energy              =   -8241.69413760 Ry
     estimated scf accuracy    <     914.71157147 Ry

     total magnetization       =    37.97 Bohr mag/cell
     absolute magnetization    =    41.06 Bohr mag/cell

     iteration #  4     ecut=    54.00 Ry     beta= 0.70
     Davidson diagonalization with overlap
     ethr =  1.00E-02,  avg # of iterations =  6.5

     negative rho (up, down):  0.000E+00 1.127E-03

     total cpu time spent up to now is      733.6 secs

     total energy              =   -8266.19652487 Ry
     estimated scf accuracy    <    1662.53569361 Ry

     total magnetization       =    16.30 Bohr mag/cell
     absolute magnetization    =    18.49 Bohr mag/cell

     iteration #  5     ecut=    54.00 Ry     beta= 0.70
     Davidson diagonalization with overlap
     ethr =  1.00E-02,  avg # of iterations =  5.7

     negative rho (up, down):  0.000E+00 8.055E-04

     total cpu time spent up to now is      918.4 secs

     total energy              =   -8295.37587199 Ry
     estimated scf accuracy    <     221.22711653 Ry

     total magnetization       =    17.89 Bohr mag/cell
     absolute magnetization    =    21.30 Bohr mag/cell

     iteration #  6     ecut=    54.00 Ry     beta= 0.70
     Davidson diagonalization with overlap
     ethr =  1.00E-02,  avg # of iterations =  2.8

     negative rho (up, down):  0.000E+00 6.919E-04

     total cpu time spent up to now is     1053.2 secs

     total energy              =   -8310.46145804 Ry
     estimated scf accuracy    <     112.78333968 Ry

     total magnetization       =     9.65 Bohr mag/cell
     absolute magnetization    =    13.25 Bohr mag/cell

     iteration #  7     ecut=    54.00 Ry     beta= 0.70
     Davidson diagonalization with overlap
     ethr =  1.00E-02,  avg # of iterations =  1.1

     negative rho (up, down):  0.000E+00 3.676E-04

     total cpu time spent up to now is     1157.4 secs

     total energy              =   -8309.96244818 Ry
     estimated scf accuracy    <      47.34833440 Ry

     total magnetization       =    18.72 Bohr mag/cell
     absolute magnetization    =    21.25 Bohr mag/cell

     iteration #  8     ecut=    54.00 Ry     beta= 0.70
     Davidson diagonalization with overlap
     ethr =  1.00E-02,  avg # of iterations =  1.3

     negative rho (up, down):  0.000E+00 1.547E-04

     total cpu time spent up to now is     1263.5 secs

     total energy              =   -8311.07688391 Ry
     estimated scf accuracy    <      86.38467518 Ry

     total magnetization       =    11.36 Bohr mag/cell
     absolute magnetization    =    15.67 Bohr mag/cell

     iteration #  9     ecut=    54.00 Ry     beta= 0.70
     Davidson diagonalization with overlap
     ethr =  1.00E-02,  avg # of iterations =  1.1

     negative rho (up, down):  0.000E+00 8.285E-05

     total cpu time spent up to now is     1367.4 secs

     total energy              =   -8311.60871111 Ry
     estimated scf accuracy    <      22.11966638 Ry

     total magnetization       =    23.15 Bohr mag/cell
     absolute magnetization    =    25.55 Bohr mag/cell

     iteration # 10     ecut=    54.00 Ry     beta= 0.70
     Davidson diagonalization with overlap
     ethr =  5.17E-03,  avg # of iterations =  1.0

     negative rho (up, down):  0.000E+00 1.402E-04

     total cpu time spent up to now is     1470.7 secs

     total energy              =   -8310.66752697 Ry
     estimated scf accuracy    <      33.53929193 Ry

     total magnetization       =    19.97 Bohr mag/cell
     absolute magnetization    =    23.34 Bohr mag/cell

     iteration # 11     ecut=    54.00 Ry     beta= 0.70
     Davidson diagonalization with overlap
     ethr =  5.17E-03,  avg # of iterations =  1.1

     negative rho (up, down):  0.000E+00 1.294E-04

     total cpu time spent up to now is     1574.2 secs

     total energy              =   -8311.29962922 Ry
     estimated scf accuracy    <      11.52032811 Ry

     total magnetization       =    32.20 Bohr mag/cell
     absolute magnetization    =    34.45 Bohr mag/cell

     iteration # 12     ecut=    54.00 Ry     beta= 0.70
     Davidson diagonalization with overlap
     ethr =  2.69E-03,  avg # of iterations =  1.5

     negative rho (up, down):  0.000E+00 1.214E-04

     total cpu time spent up to now is     1681.0 secs

     total energy              =   -8311.44803117 Ry
     estimated scf accuracy    <      10.42265462 Ry

     total magnetization       =    32.59 Bohr mag/cell
     absolute magnetization    =    34.68 Bohr mag/cell

     iteration # 13     ecut=    54.00 Ry     beta= 0.70
     Davidson diagonalization with overlap
     ethr =  2.44E-03,  avg # of iterations =  1.6

     negative rho (up, down):  0.000E+00 1.876E-04

     total cpu time spent up to now is     1786.9 secs

     total energy              =   -8311.62771862 Ry
     estimated scf accuracy    <      13.46122601 Ry

     total magnetization       =    33.29 Bohr mag/cell
     absolute magnetization    =    35.14 Bohr mag/cell

     iteration # 14     ecut=    54.00 Ry     beta= 0.70
     Davidson diagonalization with overlap
     ethr =  2.44E-03,  avg # of iterations =  1.1

     negative rho (up, down):  0.000E+00 2.988E-04

     total cpu time spent up to now is     1890.1 secs

     total energy              =   -8311.91921683 Ry
     estimated scf accuracy    <       1.07838033 Ry

     total magnetization       =    35.39 Bohr mag/cell
     absolute magnetization    =    37.48 Bohr mag/cell

     iteration # 15     ecut=    54.00 Ry     beta= 0.70
     Davidson diagonalization with overlap
     ethr =  2.52E-04,  avg # of iterations =  2.6

     negative rho (up, down):  0.000E+00 3.835E-04

     total cpu time spent up to now is     2003.3 secs

     total energy              =   -8312.00061836 Ry
     estimated scf accuracy    <       0.41846300 Ry

     total magnetization       =    37.63 Bohr mag/cell
     absolute magnetization    =    39.90 Bohr mag/cell

     iteration # 16     ecut=    54.00 Ry     beta= 0.70
     Davidson diagonalization with overlap
     ethr =  9.78E-05,  avg # of iterations =  4.6

     negative rho (up, down):  0.000E+00 1.146E-03

     total cpu time spent up to now is     2122.2 secs

     total energy              =   -8312.07498800 Ry
     estimated scf accuracy    <       0.43139348 Ry

     total magnetization       =    39.01 Bohr mag/cell
     absolute magnetization    =    41.38 Bohr mag/cell

     iteration # 17     ecut=    54.00 Ry     beta= 0.70
     Davidson diagonalization with overlap
     ethr =  9.78E-05,  avg # of iterations =  1.7

     negative rho (up, down):  0.000E+00 1.493E-03

     total cpu time spent up to now is     2234.2 secs

     total energy              =   -8312.11318006 Ry
     estimated scf accuracy    <       0.25682329 Ry

     total magnetization       =    43.11 Bohr mag/cell
     absolute magnetization    =    46.01 Bohr mag/cell

     iteration # 18     ecut=    54.00 Ry     beta= 0.70
     Davidson diagonalization with overlap
     ethr =  6.00E-05,  avg # of iterations =  3.7

     negative rho (up, down):  0.000E+00 1.400E-03

     total cpu time spent up to now is     2362.6 secs

     total energy              =   -8312.06160258 Ry
     estimated scf accuracy    <       0.92760449 Ry

     total magnetization       =    43.22 Bohr mag/cell
     absolute magnetization    =    46.59 Bohr mag/cell

     iteration # 19     ecut=    54.00 Ry     beta= 0.70
     Davidson diagonalization with overlap
     ethr =  6.00E-05,  avg # of iterations =  2.4

     negative rho (up, down):  0.000E+00 2.031E-03

     total cpu time spent up to now is     2490.5 secs

     total energy              =   -8311.95125453 Ry
     estimated scf accuracy    <       1.69416785 Ry

     total magnetization       =    42.17 Bohr mag/cell
     absolute magnetization    =    45.63 Bohr mag/cell

     iteration # 20     ecut=    54.00 Ry     beta= 0.70
     Davidson diagonalization with overlap
     ethr =  6.00E-05,  avg # of iterations =  6.7

     negative rho (up, down):  0.000E+00 1.750E-03

     total cpu time spent up to now is     2659.6 secs

     total energy              =   -8311.26728598 Ry
     estimated scf accuracy    <      21.15549676 Ry

     total magnetization       =    38.03 Bohr mag/cell
     absolute magnetization    =    42.16 Bohr mag/cell

     iteration # 21     ecut=    54.00 Ry     beta= 0.70
     Davidson diagonalization with overlap
     ethr =  6.00E-05,  avg # of iterations =  5.1

     negative rho (up, down):  0.000E+00 1.632E-03

     total cpu time spent up to now is     2818.2 secs

     total energy              =   -8312.12632253 Ry
     estimated scf accuracy    <       0.17413734 Ry

     total magnetization       =    44.88 Bohr mag/cell
     absolute magnetization    =    48.36 Bohr mag/cell

     iteration # 22     ecut=    54.00 Ry     beta= 0.70
     Davidson diagonalization with overlap
     ethr =  4.07E-05,  avg # of iterations =  2.0

     negative rho (up, down):  0.000E+00 1.772E-03

     total cpu time spent up to now is     2936.9 secs

     total energy              =   -8312.12268306 Ry
     estimated scf accuracy    <       0.40322876 Ry

     total magnetization       =    44.37 Bohr mag/cell
     absolute magnetization    =    47.89 Bohr mag/cell

     iteration # 23     ecut=    54.00 Ry     beta= 0.70
     Davidson diagonalization with overlap
     ethr =  4.07E-05,  avg # of iterations =  1.8

     negative rho (up, down):  0.000E+00 1.782E-03

     total cpu time spent up to now is     3049.9 secs

     total energy              =   -8312.13205938 Ry
     estimated scf accuracy    <       0.44696442 Ry

     total magnetization       =    44.77 Bohr mag/cell
     absolute magnetization    =    48.32 Bohr mag/cell

     iteration # 24     ecut=    54.00 Ry     beta= 0.70
     Davidson diagonalization with overlap
     ethr =  4.07E-05,  avg # of iterations =  1.0

     negative rho (up, down):  0.000E+00 1.840E-03

     total cpu time spent up to now is     3152.4 secs

     total energy              =   -8312.14590312 Ry
     estimated scf accuracy    <       0.03996748 Ry

     total magnetization       =    44.79 Bohr mag/cell
     absolute magnetization    =    48.42 Bohr mag/cell

     iteration # 25     ecut=    54.00 Ry     beta= 0.70
     Davidson diagonalization with overlap
     ethr =  9.34E-06,  avg # of iterations =  1.5

     negative rho (up, down):  0.000E+00 1.854E-03

     total cpu time spent up to now is     3261.6 secs

     total energy              =   -8312.14592976 Ry
     estimated scf accuracy    <       0.08541686 Ry

     total magnetization       =    44.97 Bohr mag/cell
     absolute magnetization    =    48.65 Bohr mag/cell

     iteration # 26     ecut=    54.00 Ry     beta= 0.70
     Davidson diagonalization with overlap
     ethr =  9.34E-06,  avg # of iterations =  1.2

     negative rho (up, down):  0.000E+00 1.866E-03

     total cpu time spent up to now is     3366.9 secs

     total energy              =   -8312.14817860 Ry
     estimated scf accuracy    <       0.00720639 Ry

     total magnetization       =    45.00 Bohr mag/cell
     absolute magnetization    =    48.72 Bohr mag/cell

     iteration # 27     ecut=    54.00 Ry     beta= 0.70
     Davidson diagonalization with overlap
     c_bands:  2 eigenvalues not converged
     c_bands:  1 eigenvalues not converged
     ethr =  1.68E-06,  avg # of iterations =  6.3

     negative rho (up, down):  0.000E+00 1.936E-03

     total cpu time spent up to now is     3499.0 secs

     total energy              =   -8312.14942771 Ry
     estimated scf accuracy    <       0.01034416 Ry

     total magnetization       =    45.04 Bohr mag/cell
     absolute magnetization    =    48.78 Bohr mag/cell

     iteration # 28     ecut=    54.00 Ry     beta= 0.70
     Davidson diagonalization with overlap
     ethr =  1.68E-06,  avg # of iterations =  2.1

     negative rho (up, down):  0.000E+00 1.930E-03

     total cpu time spent up to now is     3613.2 secs

     total energy              =   -8312.14905126 Ry
     estimated scf accuracy    <       0.00990050 Ry

     total magnetization       =    45.29 Bohr mag/cell
     absolute magnetization    =    49.09 Bohr mag/cell

     iteration # 29     ecut=    54.00 Ry     beta= 0.70
     Davidson diagonalization with overlap
     ethr =  1.68E-06,  avg # of iterations =  2.0

     negative rho (up, down):  0.000E+00 1.976E-03

     total cpu time spent up to now is     3732.0 secs

     total energy              =   -8312.14919512 Ry
     estimated scf accuracy    <       0.01459817 Ry

     total magnetization       =    45.25 Bohr mag/cell
     absolute magnetization    =    49.06 Bohr mag/cell

     iteration # 30     ecut=    54.00 Ry     beta= 0.70
     Davidson diagonalization with overlap
     ethr =  1.68E-06,  avg # of iterations =  2.0

     negative rho (up, down):  0.000E+00 1.997E-03

     total cpu time spent up to now is     3848.4 secs

     total energy              =   -8312.15020656 Ry
     estimated scf accuracy    <       0.00048809 Ry

     total magnetization       =    45.35 Bohr mag/cell
     absolute magnetization    =    49.22 Bohr mag/cell

     iteration # 31     ecut=    54.00 Ry     beta= 0.70
     Davidson diagonalization with overlap
     ethr =  1.14E-07,  avg # of iterations =  3.7

     negative rho (up, down):  0.000E+00 1.986E-03

     total cpu time spent up to now is     3982.7 secs

     total energy              =   -8312.15027309 Ry
     estimated scf accuracy    <       0.00080297 Ry

     total magnetization       =    45.40 Bohr mag/cell
     absolute magnetization    =    49.30 Bohr mag/cell

     iteration # 32     ecut=    54.00 Ry     beta= 0.70
     Davidson diagonalization with overlap
     ethr =  1.14E-07,  avg # of iterations =  2.8

     negative rho (up, down):  0.000E+00 1.988E-03

     total cpu time spent up to now is     4104.6 secs

     total energy              =   -8312.15024358 Ry
     estimated scf accuracy    <       0.00162449 Ry

     total magnetization       =    45.39 Bohr mag/cell
     absolute magnetization    =    49.28 Bohr mag/cell

     iteration # 33     ecut=    54.00 Ry     beta= 0.70
     Davidson diagonalization with overlap
     ethr =  1.14E-07,  avg # of iterations =  2.0

     negative rho (up, down):  0.000E+00 1.992E-03

     total cpu time spent up to now is     4223.0 secs

     total energy              =   -8312.15035662 Ry
     estimated scf accuracy    <       0.00028076 Ry

     total magnetization       =    45.39 Bohr mag/cell
     absolute magnetization    =    49.28 Bohr mag/cell

     iteration # 34     ecut=    54.00 Ry     beta= 0.70
     Davidson diagonalization with overlap
     ethr =  6.56E-08,  avg # of iterations =  1.1

     negative rho (up, down):  0.000E+00 1.995E-03

     total cpu time spent up to now is     4327.7 secs

     total energy              =   -8312.15036951 Ry
     estimated scf accuracy    <       0.00005764 Ry

     total magnetization       =    45.40 Bohr mag/cell
     absolute magnetization    =    49.30 Bohr mag/cell

     iteration # 35     ecut=    54.00 Ry     beta= 0.70
     Davidson diagonalization with overlap
     ethr =  1.35E-08,  avg # of iterations =  2.6

     negative rho (up, down):  0.000E+00 1.993E-03

     total cpu time spent up to now is     4458.4 secs

     total energy              =   -8312.15037107 Ry
     estimated scf accuracy    <       0.00022647 Ry

     total magnetization       =    45.41 Bohr mag/cell
     absolute magnetization    =    49.31 Bohr mag/cell

     iteration # 36     ecut=    54.00 Ry     beta= 0.70
     Davidson diagonalization with overlap
     ethr =  1.35E-08,  avg # of iterations =  2.0

     negative rho (up, down):  0.000E+00 1.994E-03

     total cpu time spent up to now is     4577.7 secs

     total energy              =   -8312.15037661 Ry
     estimated scf accuracy    <       0.00014780 Ry

     total magnetization       =    45.41 Bohr mag/cell
     absolute magnetization    =    49.31 Bohr mag/cell

     iteration # 37     ecut=    54.00 Ry     beta= 0.70
     Davidson diagonalization with overlap
