
     Program PWSCF v.7.1 starts on 27Nov2022 at 22: 4:25 

     This program is part of the open-source Quantum ESPRESSO suite
     for quantum simulation of materials; please cite
         "P. Giannozzi et al., J. Phys.:Condens. Matter 21 395502 (2009);
         "P. Giannozzi et al., J. Phys.:Condens. Matter 29 465901 (2017);
         "P. Giannozzi et al., J. Chem. Phys. 152 154105 (2020);
          URL http://www.quantum-espresso.org", 
     in publications or presentations arising from this work. More details at
     http://www.quantum-espresso.org/quote

     Parallel version (MPI), running on     4 processors

     MPI processes distributed on     1 nodes
     13474 MiB available memory on the printing compute node when the environment starts
 
     Waiting for input...
     Reading input from standard input

     Current dimensions of program PWSCF are:
     Max number of different atomic species (ntypx) = 10
     Max number of k-points (npk) =  40000
     Max angular momentum in pseudopotentials (lmaxx) =  4
     file Fe.pbe-spn-kjpaw_psl.0.2.1.UPF: wavefunction(s)  3D renormalized

     IMPORTANT: XC functional enforced from input :
     Exchange-correlation= PBE
                           (   1   4   3   4   0   0   0)
     Any further DFT definition will be discarded
     Please, verify this is what you really want

     Message from routine setup:
     using ibrav=0 with symmetry is DISCOURAGED, use correct ibrav instead
 
     R & G space division:  proc/nbgrp/npool/nimage =       4
     Subspace diagonalization in iterative solution of the eigenvalue problem:
     a serial algorithm will be used

 
     Parallelization info
     --------------------
     sticks:   dense  smooth     PW     G-vecs:    dense   smooth      PW
     Min        1961     973    270                92450    32611    4701
     Max        1962     974    271                92451    32612    4702
     Sum        7847    3895   1083               369801   130447   18805
 
     Using Slab Decomposition
 


     bravais-lattice index     =            0
     lattice parameter (alat)  =      10.6864  a.u.
     unit-cell volume          =    2440.7563 (a.u.)^3
     number of atoms/cell      =           32
     number of atomic types    =            2
     number of electrons       =       428.00
     number of Kohn-Sham states=          257
     kinetic-energy cutoff     =      54.0000  Ry
     charge density cutoff     =     432.0000  Ry
     scf convergence threshold =      1.0E-08
     mixing beta               =       0.7000
     number of iterations used =            8  plain     mixing
     energy convergence thresh.=      1.0E-04
     force convergence thresh. =      1.0E-03
     press convergence thresh. =      5.0E-01
     Exchange-correlation= PBE
                           (   1   4   3   4   0   0   0)
     nstep                     =           50


     GPU acceleration is ACTIVE.

     Message from routine print_cuda_info:
     High GPU oversubscription detected. Are you sure this is what you want?

     celldm(1)=  10.686401  celldm(2)=   0.000000  celldm(3)=   0.000000
     celldm(4)=   0.000000  celldm(5)=   0.000000  celldm(6)=   0.000000

     crystal axes: (cart. coord. in units of alat)
               a(1) = (   2.000000   0.000000   0.000000 )  
               a(2) = (   0.000000   1.000000   0.000000 )  
               a(3) = (   0.000000   0.000000   1.000000 )  

     reciprocal axes: (cart. coord. in units 2 pi/alat)
               b(1) = (  0.500000  0.000000  0.000000 )  
               b(2) = (  0.000000  1.000000  0.000000 )  
               b(3) = (  0.000000  0.000000  1.000000 )  


     PseudoPot. # 1 for Si read from file:
     ./Si.pbe-n-rrkjus_psl.1.0.0.UPF
     MD5 check sum: 0b0bb1205258b0d07b9f9672cf965d36
     Pseudo is Ultrasoft + core correction, Zval =  4.0
     Generated using "atomic" code by A. Dal Corso  v.5.1
     Using radial grid of 1141 points,  6 beta functions with: 
                l(1) =   0
                l(2) =   0
                l(3) =   1
                l(4) =   1
                l(5) =   2
                l(6) =   2
     Q(r) pseudized with 0 coefficients 


     PseudoPot. # 2 for Fe read from file:
     ./Fe.pbe-spn-kjpaw_psl.0.2.1.UPF
     MD5 check sum: e86618425769142926afa95317d90200
     Pseudo is Projector augmented-wave + core cor, Zval = 16.0
     Generated using "atomic" code by A. Dal Corso  v.5.0.99 svn rev. 10869
     Shape of augmentation charge: PSQ
     Using radial grid of 1191 points,  6 beta functions with: 
                l(1) =   0
                l(2) =   0
                l(3) =   1
                l(4) =   1
                l(5) =   2
                l(6) =   2
     Q(r) pseudized with 0 coefficients 


     atomic species   valence    mass     pseudopotential
        Si             4.00    28.08500     Si( 1.00)
        Fe            16.00    55.84500     Fe( 1.00)

     Starting magnetic structure 
     atomic species   magnetization
        Si           1.000
        Fe           1.000

     16 Sym. Ops., with inversion, found



   Cartesian axes

     site n.     atom                  positions (alat units)
         1           Fe  tau(   1) = (   0.5000000   0.5000000   0.5000000  )
         2           Fe  tau(   2) = (   0.5000000   1.0000000   1.0000000  )
         3           Fe  tau(   3) = (   1.0000000   0.5000000   1.0000000  )
         4           Fe  tau(   4) = (   1.0000000   1.0000000   0.5000000  )
         5           Fe  tau(   5) = (   0.2500000   0.2500000   0.2500000  )
         6           Fe  tau(   6) = (   0.2500000   0.7500000   0.7500000  )
         7           Fe  tau(   7) = (   0.7500000   0.2500000   0.7500000  )
         8           Fe  tau(   8) = (   0.7500000   0.7500000   0.2500000  )
         9           Fe  tau(   9) = (   0.7500000   0.7500000   0.7500000  )
        10           Fe  tau(  10) = (   0.7500000   0.2500000   0.2500000  )
        11           Fe  tau(  11) = (   0.2500000   0.7500000   0.2500000  )
        12           Fe  tau(  12) = (   0.2500000   0.2500000   0.7500000  )
        13           Si  tau(  13) = (   0.0000000   0.0000000   0.0000000  )
        14           Si  tau(  14) = (   0.0000000   0.5000000   0.5000000  )
        15           Si  tau(  15) = (   0.5000000   0.0000000   0.5000000  )
        16           Si  tau(  16) = (   0.5000000   0.5000000   0.0000000  )
        17           Fe  tau(  17) = (   1.5000000   0.5000000   0.5000000  )
        18           Fe  tau(  18) = (   1.5000000   1.0000000   1.0000000  )
        19           Fe  tau(  19) = (   2.0000000   0.5000000   1.0000000  )
        20           Fe  tau(  20) = (   2.0000000   1.0000000   0.5000000  )
        21           Fe  tau(  21) = (   1.2500000   0.2500000   0.2500000  )
        22           Fe  tau(  22) = (   1.2500000   0.7500000   0.7500000  )
        23           Fe  tau(  23) = (   1.7500000   0.2500000   0.7500000  )
        24           Fe  tau(  24) = (   1.7500000   0.7500000   0.2500000  )
        25           Fe  tau(  25) = (   1.7500000   0.7500000   0.7500000  )
        26           Fe  tau(  26) = (   1.7500000   0.2500000   0.2500000  )
        27           Fe  tau(  27) = (   1.2500000   0.7500000   0.2500000  )
        28           Fe  tau(  28) = (   1.2500000   0.2500000   0.7500000  )
        29           Fe  tau(  29) = (   1.0000000   0.0000000   0.0000000  )
        30           Si  tau(  30) = (   1.0000000   0.5000000   0.5000000  )
        31           Si  tau(  31) = (   1.5000000   0.0000000   0.5000000  )
        32           Si  tau(  32) = (   1.5000000   0.5000000   0.0000000  )

     number of k points=    18  Marzari-Vanderbilt smearing, width (Ry)=  0.0050
                       cart. coord. in units 2pi/alat
        k(    1) = (   0.0000000   0.0000000   0.0000000), wk =   0.0080000
        k(    2) = (   0.0000000   0.0000000   0.2000000), wk =   0.0320000
        k(    3) = (   0.0000000   0.0000000   0.4000000), wk =   0.0320000
        k(    4) = (   0.0000000   0.2000000   0.2000000), wk =   0.0320000
        k(    5) = (   0.0000000   0.2000000   0.4000000), wk =   0.0640000
        k(    6) = (   0.0000000   0.4000000   0.4000000), wk =   0.0320000
        k(    7) = (   0.1000000   0.0000000   0.0000000), wk =   0.0160000
        k(    8) = (   0.1000000   0.0000000   0.2000000), wk =   0.0640000
        k(    9) = (   0.1000000   0.0000000   0.4000000), wk =   0.0640000
        k(   10) = (   0.1000000   0.2000000   0.2000000), wk =   0.0640000
        k(   11) = (   0.1000000   0.2000000   0.4000000), wk =   0.1280000
        k(   12) = (   0.1000000   0.4000000   0.4000000), wk =   0.0640000
        k(   13) = (   0.2000000   0.0000000   0.0000000), wk =   0.0160000
        k(   14) = (   0.2000000   0.0000000   0.2000000), wk =   0.0640000
        k(   15) = (   0.2000000   0.0000000   0.4000000), wk =   0.0640000
        k(   16) = (   0.2000000   0.2000000   0.2000000), wk =   0.0640000
        k(   17) = (   0.2000000   0.2000000   0.4000000), wk =   0.1280000
        k(   18) = (   0.2000000   0.4000000   0.4000000), wk =   0.0640000

     Dense  grid:   369801 G-vectors     FFT dimensions: ( 144,  72,  72)

     Smooth grid:   130447 G-vectors     FFT dimensions: ( 100,  50,  50)

     Estimated max dynamical RAM per process >       1.07 GB

     Estimated total dynamical RAM >       4.26 GB

     Check: negative core charge=   -0.000063
     Generating pointlists ...
     new r_m :   0.1786 (alat units)  1.9088 (a.u.) for type    1
     new r_m :   0.1786 (alat units)  1.9088 (a.u.) for type    2

     Initial potential from superposition of free atoms

     starting charge     427.9851, renormalised to     428.0000
     Starting wfcs are  353 randomized atomic wfcs
     Checking if some PAW data can be deallocated... 

     total cpu time spent up to now is       97.4 secs

     Self-consistent Calculation

     iteration #  1     ecut=    54.00 Ry     beta= 0.70
     Davidson diagonalization with overlap
     ethr =  1.00E-02,  avg # of iterations =  2.7

     negative rho (up, down):  0.000E+00 6.189E-03

     total cpu time spent up to now is      226.7 secs

     total energy              =   -8291.97435261 Ry
     estimated scf accuracy    <     105.40511574 Ry

     total magnetization       =    86.00 Bohr mag/cell
     absolute magnetization    =   112.42 Bohr mag/cell

     iteration #  2     ecut=    54.00 Ry     beta= 0.70
     Davidson diagonalization with overlap
     ethr =  1.00E-02,  avg # of iterations =  3.7

     negative rho (up, down):  0.000E+00 3.724E-03

     total cpu time spent up to now is      347.8 secs

     total energy              =   -8291.05579472 Ry
     estimated scf accuracy    <      54.27414611 Ry

     total magnetization       =    67.74 Bohr mag/cell
     absolute magnetization    =    74.31 Bohr mag/cell

     iteration #  3     ecut=    54.00 Ry     beta= 0.70
     Davidson diagonalization with overlap
     ethr =  1.00E-02,  avg # of iterations =  4.9

     negative rho (up, down):  0.000E+00 3.253E-03

     total cpu time spent up to now is      498.6 secs

     total energy              =   -8241.62527115 Ry
     estimated scf accuracy    <     911.38028438 Ry

     total magnetization       =    38.42 Bohr mag/cell
     absolute magnetization    =    41.07 Bohr mag/cell

     iteration #  4     ecut=    54.00 Ry     beta= 0.70
     Davidson diagonalization with overlap
     ethr =  1.00E-02,  avg # of iterations =  6.4

     negative rho (up, down):  0.000E+00 1.138E-03

     total cpu time spent up to now is      677.9 secs

     total energy              =   -8265.97108871 Ry
     estimated scf accuracy    <    1672.14113643 Ry

     total magnetization       =    16.18 Bohr mag/cell
     absolute magnetization    =    18.40 Bohr mag/cell

     iteration #  5     ecut=    54.00 Ry     beta= 0.70
     Davidson diagonalization with overlap
     ethr =  1.00E-02,  avg # of iterations =  5.8

     negative rho (up, down):  0.000E+00 8.200E-04

     total cpu time spent up to now is      837.3 secs

     total energy              =   -8295.31375367 Ry
     estimated scf accuracy    <     220.58342136 Ry

     total magnetization       =    17.84 Bohr mag/cell
     absolute magnetization    =    21.26 Bohr mag/cell

     iteration #  6     ecut=    54.00 Ry     beta= 0.70
     Davidson diagonalization with overlap
     ethr =  1.00E-02,  avg # of iterations =  2.8

     negative rho (up, down):  0.000E+00 7.064E-04

     total cpu time spent up to now is      952.7 secs

     total energy              =   -8310.40629699 Ry
     estimated scf accuracy    <     111.26334234 Ry

     total magnetization       =     9.98 Bohr mag/cell
     absolute magnetization    =    13.48 Bohr mag/cell

     iteration #  7     ecut=    54.00 Ry     beta= 0.70
     Davidson diagonalization with overlap
     ethr =  1.00E-02,  avg # of iterations =  1.1

     negative rho (up, down):  0.000E+00 3.757E-04

     total cpu time spent up to now is     1040.9 secs

     total energy              =   -8309.94448196 Ry
     estimated scf accuracy    <      47.88343950 Ry

     total magnetization       =    18.88 Bohr mag/cell
     absolute magnetization    =    21.38 Bohr mag/cell

     iteration #  8     ecut=    54.00 Ry     beta= 0.70
     Davidson diagonalization with overlap
     ethr =  1.00E-02,  avg # of iterations =  1.4

     negative rho (up, down):  0.000E+00 1.653E-04

     total cpu time spent up to now is     1132.4 secs

     total energy              =   -8311.04737287 Ry
     estimated scf accuracy    <      85.52468852 Ry

     total magnetization       =    11.41 Bohr mag/cell
     absolute magnetization    =    15.69 Bohr mag/cell

     iteration #  9     ecut=    54.00 Ry     beta= 0.70
     Davidson diagonalization with overlap
     ethr =  1.00E-02,  avg # of iterations =  1.1

     negative rho (up, down):  0.000E+00 9.388E-05

     total cpu time spent up to now is     1220.0 secs

     total energy              =   -8311.56555827 Ry
     estimated scf accuracy    <      20.51126764 Ry

     total magnetization       =    23.75 Bohr mag/cell
     absolute magnetization    =    26.10 Bohr mag/cell

     iteration # 10     ecut=    54.00 Ry     beta= 0.70
     Davidson diagonalization with overlap
     ethr =  4.79E-03,  avg # of iterations =  1.0

     negative rho (up, down):  0.000E+00 1.407E-04

     total cpu time spent up to now is     1307.4 secs

     total energy              =   -8310.81294156 Ry
     estimated scf accuracy    <      29.47817464 Ry

     total magnetization       =    22.70 Bohr mag/cell
     absolute magnetization    =    25.74 Bohr mag/cell

     iteration # 11     ecut=    54.00 Ry     beta= 0.70
     Davidson diagonalization with overlap
     ethr =  4.79E-03,  avg # of iterations =  1.0

     negative rho (up, down):  0.000E+00 2.289E-04

     total cpu time spent up to now is     1394.5 secs

     total energy              =   -8311.60293609 Ry
     estimated scf accuracy    <       7.55393173 Ry

     total magnetization       =    34.81 Bohr mag/cell
     absolute magnetization    =    36.94 Bohr mag/cell

     iteration # 12     ecut=    54.00 Ry     beta= 0.70
     Davidson diagonalization with overlap
     ethr =  1.76E-03,  avg # of iterations =  1.7

     negative rho (up, down):  0.000E+00 1.938E-04

     total cpu time spent up to now is     1484.9 secs

     total energy              =   -8311.64084055 Ry
     estimated scf accuracy    <       4.49497873 Ry

     total magnetization       =    36.43 Bohr mag/cell
     absolute magnetization    =    38.62 Bohr mag/cell

     iteration # 13     ecut=    54.00 Ry     beta= 0.70
     Davidson diagonalization with overlap
     ethr =  1.05E-03,  avg # of iterations =  1.7

     negative rho (up, down):  0.000E+00 2.574E-04

     total cpu time spent up to now is     1576.8 secs

     total energy              =   -8311.43490330 Ry
     estimated scf accuracy    <      19.10764944 Ry

     total magnetization       =    32.65 Bohr mag/cell
     absolute magnetization    =    34.83 Bohr mag/cell

     iteration # 14     ecut=    54.00 Ry     beta= 0.70
     Davidson diagonalization with overlap
     ethr =  1.05E-03,  avg # of iterations =  1.0

     negative rho (up, down):  0.000E+00 4.522E-04

     total cpu time spent up to now is     1664.0 secs

     total energy              =   -8311.95185261 Ry
     estimated scf accuracy    <       1.49879953 Ry

     total magnetization       =    37.02 Bohr mag/cell
     absolute magnetization    =    39.18 Bohr mag/cell

     iteration # 15     ecut=    54.00 Ry     beta= 0.70
     Davidson diagonalization with overlap
     ethr =  3.50E-04,  avg # of iterations =  1.6

     negative rho (up, down):  0.000E+00 6.558E-04

     total cpu time spent up to now is     1755.7 secs

     total energy              =   -8312.03890398 Ry
     estimated scf accuracy    <       0.49602876 Ry

     total magnetization       =    39.44 Bohr mag/cell
     absolute magnetization    =    41.87 Bohr mag/cell

     iteration # 16     ecut=    54.00 Ry     beta= 0.70
     Davidson diagonalization with overlap
     ethr =  1.16E-04,  avg # of iterations =  4.2

     negative rho (up, down):  0.000E+00 1.049E-03

     total cpu time spent up to now is     1855.6 secs

     total energy              =   -8312.09258148 Ry
     estimated scf accuracy    <       0.33621116 Ry

     total magnetization       =    40.68 Bohr mag/cell
     absolute magnetization    =    43.31 Bohr mag/cell

     iteration # 17     ecut=    54.00 Ry     beta= 0.70
     Davidson diagonalization with overlap
     ethr =  7.86E-05,  avg # of iterations =  2.3

     negative rho (up, down):  0.000E+00 1.633E-03

     total cpu time spent up to now is     1953.1 secs

     total energy              =   -8312.09941996 Ry
     estimated scf accuracy    <       0.27639885 Ry

     total magnetization       =    42.65 Bohr mag/cell
     absolute magnetization    =    45.52 Bohr mag/cell

     iteration # 18     ecut=    54.00 Ry     beta= 0.70
     Davidson diagonalization with overlap
     ethr =  6.46E-05,  avg # of iterations =  4.7

     negative rho (up, down):  0.000E+00 1.511E-03

     total cpu time spent up to now is     2067.4 secs

     total energy              =   -8312.01702513 Ry
     estimated scf accuracy    <       2.00897003 Ry

     total magnetization       =    42.99 Bohr mag/cell
     absolute magnetization    =    46.55 Bohr mag/cell

     iteration # 19     ecut=    54.00 Ry     beta= 0.70
     Davidson diagonalization with overlap
     ethr =  6.46E-05,  avg # of iterations =  2.2

     negative rho (up, down):  0.000E+00 2.044E-03

     total cpu time spent up to now is     2174.5 secs

     total energy              =   -8312.03774549 Ry
     estimated scf accuracy    <       0.84962502 Ry

     total magnetization       =    43.02 Bohr mag/cell
     absolute magnetization    =    46.55 Bohr mag/cell

     iteration # 20     ecut=    54.00 Ry     beta= 0.70
     Davidson diagonalization with overlap
     ethr =  6.46E-05,  avg # of iterations =  3.8

     negative rho (up, down):  0.000E+00 1.804E-03

     total cpu time spent up to now is     2295.1 secs

     total energy              =   -8311.92954756 Ry
     estimated scf accuracy    <       4.10204230 Ry

     total magnetization       =    43.95 Bohr mag/cell
     absolute magnetization    =    47.54 Bohr mag/cell

     iteration # 21     ecut=    54.00 Ry     beta= 0.70
     Davidson diagonalization with overlap
     ethr =  6.46E-05,  avg # of iterations =  2.6

     negative rho (up, down):  0.000E+00 1.841E-03

     total cpu time spent up to now is     2407.6 secs

     total energy              =   -8312.13341922 Ry
     estimated scf accuracy    <       0.25420110 Ry

     total magnetization       =    45.08 Bohr mag/cell
     absolute magnetization    =    48.61 Bohr mag/cell

     iteration # 22     ecut=    54.00 Ry     beta= 0.70
     Davidson diagonalization with overlap
     ethr =  5.94E-05,  avg # of iterations =  1.1

     negative rho (up, down):  0.000E+00 1.984E-03

     total cpu time spent up to now is     2495.4 secs

     total energy              =   -8312.14055645 Ry
     estimated scf accuracy    <       0.02951701 Ry

     total magnetization       =    44.88 Bohr mag/cell
     absolute magnetization    =    48.51 Bohr mag/cell

     iteration # 23     ecut=    54.00 Ry     beta= 0.70
     Davidson diagonalization with overlap
     c_bands:  2 eigenvalues not converged
     c_bands:  1 eigenvalues not converged
     c_bands:  1 eigenvalues not converged
     c_bands:  1 eigenvalues not converged
     ethr =  6.90E-06,  avg # of iterations =  9.0

     negative rho (up, down):  0.000E+00 1.870E-03

     total cpu time spent up to now is     2630.6 secs

     total energy              =   -8312.12286071 Ry
     estimated scf accuracy    <       0.85872882 Ry

     total magnetization       =    44.99 Bohr mag/cell
     absolute magnetization    =    48.77 Bohr mag/cell

     iteration # 24     ecut=    54.00 Ry     beta= 0.70
     Davidson diagonalization with overlap
     ethr =  6.90E-06,  avg # of iterations =  3.2

     negative rho (up, down):  0.000E+00 1.935E-03

     total cpu time spent up to now is     2749.9 secs

     total energy              =   -8312.14769430 Ry
     estimated scf accuracy    <       0.00960508 Ry

     total magnetization       =    45.00 Bohr mag/cell
     absolute magnetization    =    48.75 Bohr mag/cell

     iteration # 25     ecut=    54.00 Ry     beta= 0.70
     Davidson diagonalization with overlap
     c_bands:  1 eigenvalues not converged
     c_bands:  1 eigenvalues not converged
     ethr =  2.24E-06,  avg # of iterations =  4.1

     negative rho (up, down):  0.000E+00 1.922E-03

     total cpu time spent up to now is     2860.0 secs

     total energy              =   -8312.14817799 Ry
     estimated scf accuracy    <       0.01227409 Ry

     total magnetization       =    45.14 Bohr mag/cell
     absolute magnetization    =    48.94 Bohr mag/cell

     iteration # 26     ecut=    54.00 Ry     beta= 0.70
     Davidson diagonalization with overlap
     ethr =  2.24E-06,  avg # of iterations =  2.6

     negative rho (up, down):  0.000E+00 1.974E-03

     total cpu time spent up to now is     2961.4 secs

     total energy              =   -8312.14917915 Ry
     estimated scf accuracy    <       0.02195830 Ry

     total magnetization       =    45.14 Bohr mag/cell
     absolute magnetization    =    48.93 Bohr mag/cell

     iteration # 27     ecut=    54.00 Ry     beta= 0.70
     Davidson diagonalization with overlap
     ethr =  2.24E-06,  avg # of iterations =  1.9

     negative rho (up, down):  0.000E+00 1.966E-03

     total cpu time spent up to now is     3059.7 secs

     total energy              =   -8312.14983971 Ry
     estimated scf accuracy    <       0.00322616 Ry

     total magnetization       =    45.30 Bohr mag/cell
     absolute magnetization    =    49.17 Bohr mag/cell

     iteration # 28     ecut=    54.00 Ry     beta= 0.70
     Davidson diagonalization with overlap
     ethr =  7.54E-07,  avg # of iterations =  2.4

     negative rho (up, down):  0.000E+00 1.965E-03

     total cpu time spent up to now is     3171.5 secs

     total energy              =   -8312.14911563 Ry
     estimated scf accuracy    <       0.02100204 Ry

     total magnetization       =    45.36 Bohr mag/cell
     absolute magnetization    =    49.19 Bohr mag/cell

     iteration # 29     ecut=    54.00 Ry     beta= 0.70
     Davidson diagonalization with overlap
     ethr =  7.54E-07,  avg # of iterations =  2.2

     negative rho (up, down):  0.000E+00 1.978E-03

     total cpu time spent up to now is     3279.4 secs

     total energy              =   -8312.14952068 Ry
     estimated scf accuracy    <       0.01071924 Ry

     total magnetization       =    45.33 Bohr mag/cell
     absolute magnetization    =    49.18 Bohr mag/cell

     iteration # 30     ecut=    54.00 Ry     beta= 0.70
     Davidson diagonalization with overlap
     ethr =  7.54E-07,  avg # of iterations =  2.1

     negative rho (up, down):  0.000E+00 1.989E-03

     total cpu time spent up to now is     3385.5 secs

     total energy              =   -8312.14979869 Ry
     estimated scf accuracy    <       0.00794874 Ry

     total magnetization       =    45.35 Bohr mag/cell
     absolute magnetization    =    49.24 Bohr mag/cell

     iteration # 31     ecut=    54.00 Ry     beta= 0.70
     Davidson diagonalization with overlap
     ethr =  7.54E-07,  avg # of iterations =  1.9

     negative rho (up, down):  0.000E+00 1.985E-03

     total cpu time spent up to now is     3483.0 secs

     total energy              =   -8312.15031774 Ry
     estimated scf accuracy    <       0.00040507 Ry

     total magnetization       =    45.38 Bohr mag/cell
     absolute magnetization    =    49.27 Bohr mag/cell

     iteration # 32     ecut=    54.00 Ry     beta= 0.70
     Davidson diagonalization with overlap
     ethr =  9.46E-08,  avg # of iterations =  2.4

     negative rho (up, down):  0.000E+00 1.994E-03

     total cpu time spent up to now is     3595.6 secs

     total energy              =   -8312.15023149 Ry
     estimated scf accuracy    <       0.00241094 Ry

     total magnetization       =    45.34 Bohr mag/cell
     absolute magnetization    =    49.24 Bohr mag/cell

     iteration # 33     ecut=    54.00 Ry     beta= 0.70
     Davidson diagonalization with overlap
     ethr =  9.46E-08,  avg # of iterations =  2.1

     negative rho (up, down):  0.000E+00 1.989E-03

     total cpu time spent up to now is     3702.3 secs

     total energy              =   -8312.15035835 Ry
     estimated scf accuracy    <       0.00014278 Ry

     total magnetization       =    45.40 Bohr mag/cell
     absolute magnetization    =    49.30 Bohr mag/cell

     iteration # 34     ecut=    54.00 Ry     beta= 0.70
     Davidson diagonalization with overlap
     ethr =  3.34E-08,  avg # of iterations =  2.0

     negative rho (up, down):  0.000E+00 1.993E-03

     total cpu time spent up to now is     3802.5 secs

     total energy              =   -8312.15036649 Ry
     estimated scf accuracy    <       0.00035038 Ry

     total magnetization       =    45.39 Bohr mag/cell
     absolute magnetization    =    49.28 Bohr mag/cell

     iteration # 35     ecut=    54.00 Ry     beta= 0.70
     Davidson diagonalization with overlap
     ethr =  3.34E-08,  avg # of iterations =  1.9

     negative rho (up, down):  0.000E+00 1.991E-03

     total cpu time spent up to now is     3902.5 secs

     total energy              =   -8312.15036406 Ry
     estimated scf accuracy    <       0.00017414 Ry

     total magnetization       =    45.40 Bohr mag/cell
     absolute magnetization    =    49.30 Bohr mag/cell

     iteration # 36     ecut=    54.00 Ry     beta= 0.70
     Davidson diagonalization with overlap
     ethr =  3.34E-08,  avg # of iterations =  1.6

     negative rho (up, down):  0.000E+00 1.991E-03

     total cpu time spent up to now is     3997.3 secs

     total energy              =   -8312.15037355 Ry
     estimated scf accuracy    <       0.00011411 Ry

     total magnetization       =    45.40 Bohr mag/cell
     absolute magnetization    =    49.30 Bohr mag/cell

     iteration # 37     ecut=    54.00 Ry     beta= 0.70
     Davidson diagonalization with overlap
     ethr =  2.67E-08,  avg # of iterations =  1.1

     negative rho (up, down):  0.000E+00 1.991E-03

     total cpu time spent up to now is     4085.3 secs

     total energy              =   -8312.15038120 Ry
     estimated scf accuracy    <       0.00002798 Ry

     total magnetization       =    45.40 Bohr mag/cell
     absolute magnetization    =    49.30 Bohr mag/cell

     iteration # 38     ecut=    54.00 Ry     beta= 0.70
     Davidson diagonalization with overlap
     ethr =  6.54E-09,  avg # of iterations =  2.0

     negative rho (up, down):  0.000E+00 1.991E-03

     total cpu time spent up to now is     4189.4 secs

     total energy              =   -8312.15038052 Ry
     estimated scf accuracy    <       0.00009307 Ry

     total magnetization       =    45.40 Bohr mag/cell
     absolute magnetization    =    49.30 Bohr mag/cell

     iteration # 39     ecut=    54.00 Ry     beta= 0.70
     Davidson diagonalization with overlap
     ethr =  6.54E-09,  avg # of iterations =  1.5

     negative rho (up, down):  0.000E+00 1.991E-03

     total cpu time spent up to now is     4283.4 secs

     total energy              =   -8312.15038243 Ry
     estimated scf accuracy    <       0.00001377 Ry

     total magnetization       =    45.40 Bohr mag/cell
     absolute magnetization    =    49.30 Bohr mag/cell

     iteration # 40     ecut=    54.00 Ry     beta= 0.70
     Davidson diagonalization with overlap
     ethr =  3.22E-09,  avg # of iterations =  1.9

     negative rho (up, down):  0.000E+00 1.991E-03

     total cpu time spent up to now is     4382.1 secs

     total energy              =   -8312.15038159 Ry
     estimated scf accuracy    <       0.00001508 Ry

     total magnetization       =    45.40 Bohr mag/cell
     absolute magnetization    =    49.30 Bohr mag/cell

     iteration # 41     ecut=    54.00 Ry     beta= 0.70
     Davidson diagonalization with overlap
     ethr =  3.22E-09,  avg # of iterations =  2.6

     negative rho (up, down):  0.000E+00 1.991E-03

     total cpu time spent up to now is     4489.9 secs

     total energy              =   -8312.15038173 Ry
     estimated scf accuracy    <       0.00003550 Ry

     total magnetization       =    45.41 Bohr mag/cell
     absolute magnetization    =    49.31 Bohr mag/cell

     iteration # 42     ecut=    54.00 Ry     beta= 0.70
     Davidson diagonalization with overlap
     ethr =  3.22E-09,  avg # of iterations =  1.9

     negative rho (up, down):  0.000E+00 1.991E-03

     total cpu time spent up to now is     4587.9 secs

     total energy              =   -8312.15038395 Ry
     estimated scf accuracy    <       0.00000116 Ry

     total magnetization       =    45.40 Bohr mag/cell
     absolute magnetization    =    49.30 Bohr mag/cell

     iteration # 43     ecut=    54.00 Ry     beta= 0.70
     Davidson diagonalization with overlap
     ethr =  2.72E-10,  avg # of iterations =  3.0

     negative rho (up, down):  0.000E+00 1.992E-03

     total cpu time spent up to now is     4700.7 secs

     total energy              =   -8312.15038390 Ry
     estimated scf accuracy    <       0.00000321 Ry

     total magnetization       =    45.41 Bohr mag/cell
     absolute magnetization    =    49.31 Bohr mag/cell

     iteration # 44     ecut=    54.00 Ry     beta= 0.70
     Davidson diagonalization with overlap
     ethr =  2.72E-10,  avg # of iterations =  2.7

     negative rho (up, down):  0.000E+00 1.992E-03

     total cpu time spent up to now is     4811.5 secs

     total energy              =   -8312.15038358 Ry
     estimated scf accuracy    <       0.00001730 Ry

     total magnetization       =    45.41 Bohr mag/cell
     absolute magnetization    =    49.31 Bohr mag/cell

     iteration # 45     ecut=    54.00 Ry     beta= 0.70
     Davidson diagonalization with overlap
     ethr =  2.72E-10,  avg # of iterations =  2.1

     negative rho (up, down):  0.000E+00 1.992E-03

     total cpu time spent up to now is     4921.7 secs

     total energy              =   -8312.15038422 Ry
     estimated scf accuracy    <       0.00000096 Ry

     total magnetization       =    45.41 Bohr mag/cell
     absolute magnetization    =    49.31 Bohr mag/cell

     iteration # 46     ecut=    54.00 Ry     beta= 0.70
     Davidson diagonalization with overlap
     ethr =  2.25E-10,  avg # of iterations =  1.5

     negative rho (up, down):  0.000E+00 1.992E-03

     total cpu time spent up to now is     5015.2 secs

     total energy              =   -8312.15038422 Ry
     estimated scf accuracy    <       0.00000223 Ry

     total magnetization       =    45.41 Bohr mag/cell
     absolute magnetization    =    49.31 Bohr mag/cell

     iteration # 47     ecut=    54.00 Ry     beta= 0.70
     Davidson diagonalization with overlap
     ethr =  2.25E-10,  avg # of iterations =  1.4

     negative rho (up, down):  0.000E+00 1.992E-03

     total cpu time spent up to now is     5107.4 secs

     total energy              =   -8312.15038430 Ry
     estimated scf accuracy    <       0.00000014 Ry

     total magnetization       =    45.41 Bohr mag/cell
     absolute magnetization    =    49.31 Bohr mag/cell

     iteration # 48     ecut=    54.00 Ry     beta= 0.70
     Davidson diagonalization with overlap
     ethr =  3.19E-11,  avg # of iterations =  3.5

     negative rho (up, down):  0.000E+00 1.992E-03

     total cpu time spent up to now is     5224.1 secs

     total energy              =   -8312.15038428 Ry
     estimated scf accuracy    <       0.00000025 Ry

     total magnetization       =    45.41 Bohr mag/cell
     absolute magnetization    =    49.31 Bohr mag/cell

     iteration # 49     ecut=    54.00 Ry     beta= 0.70
     Davidson diagonalization with overlap
     ethr =  3.19E-11,  avg # of iterations =  2.3

     negative rho (up, down):  0.000E+00 1.992E-03

     total cpu time spent up to now is     5335.8 secs

     total energy              =   -8312.15038427 Ry
     estimated scf accuracy    <       0.00000144 Ry

     total magnetization       =    45.41 Bohr mag/cell
     absolute magnetization    =    49.31 Bohr mag/cell

     iteration # 50     ecut=    54.00 Ry     beta= 0.70
     Davidson diagonalization with overlap
     ethr =  3.19E-11,  avg # of iterations =  2.2

     negative rho (up, down):  0.000E+00 1.992E-03

     total cpu time spent up to now is     5443.1 secs

     total energy              =   -8312.15038433 Ry
     estimated scf accuracy    <       0.00000006 Ry

     total magnetization       =    45.41 Bohr mag/cell
     absolute magnetization    =    49.31 Bohr mag/cell

     iteration # 51     ecut=    54.00 Ry     beta= 0.70
     Davidson diagonalization with overlap
     ethr =  1.29E-11,  avg # of iterations =  1.6

     negative rho (up, down):  0.000E+00 1.992E-03

     total cpu time spent up to now is     5538.3 secs

     total energy              =   -8312.15038433 Ry
     estimated scf accuracy    <       0.00000003 Ry

     total magnetization       =    45.41 Bohr mag/cell
     absolute magnetization    =    49.31 Bohr mag/cell

     iteration # 52     ecut=    54.00 Ry     beta= 0.70
     Davidson diagonalization with overlap
     ethr =  6.41E-12,  avg # of iterations =  2.1

     negative rho (up, down):  0.000E+00 1.992E-03

     total cpu time spent up to now is     5645.3 secs

     total energy              =   -8312.15038432 Ry
     estimated scf accuracy    <       0.00000017 Ry

     total magnetization       =    45.41 Bohr mag/cell
     absolute magnetization    =    49.31 Bohr mag/cell

     iteration # 53     ecut=    54.00 Ry     beta= 0.70
     Davidson diagonalization with overlap
     ethr =  6.41E-12,  avg # of iterations =  2.6

     negative rho (up, down):  0.000E+00 1.992E-03
 
     Magnetic moment per site  (integrated on atomic sphere of radius R)
     atom   1 (R=0.179)  charge= 14.3849  magn=  2.4611
     atom   2 (R=0.179)  charge= 14.3811  magn=  2.5249
     atom   3 (R=0.179)  charge= 14.3825  magn=  2.5253
     atom   4 (R=0.179)  charge= 14.3825  magn=  2.5253
     atom   5 (R=0.179)  charge= 14.4821  magn=  1.3717
     atom   6 (R=0.179)  charge= 14.4821  magn=  1.3717
     atom   7 (R=0.179)  charge= 14.4574  magn=  1.6812
     atom   8 (R=0.179)  charge= 14.4574  magn=  1.6812
     atom   9 (R=0.179)  charge= 14.4574  magn=  1.6812
     atom  10 (R=0.179)  charge= 14.4574  magn=  1.6812
     atom  11 (R=0.179)  charge= 14.4821  magn=  1.3717
     atom  12 (R=0.179)  charge= 14.4821  magn=  1.3717
     atom  13 (R=0.179)  charge=  2.0493  magn= -0.0709
     atom  14 (R=0.179)  charge=  2.0486  magn= -0.0657
     atom  15 (R=0.179)  charge=  2.0503  magn= -0.0748
     atom  16 (R=0.179)  charge=  2.0503  magn= -0.0748
     atom  17 (R=0.179)  charge= 14.3849  magn=  2.4611
     atom  18 (R=0.179)  charge= 14.3811  magn=  2.5249
     atom  19 (R=0.179)  charge= 14.3781  magn=  2.5293
     atom  20 (R=0.179)  charge= 14.3781  magn=  2.5293
     atom  21 (R=0.179)  charge= 14.4574  magn=  1.6812
     atom  22 (R=0.179)  charge= 14.4574  magn=  1.6812
     atom  23 (R=0.179)  charge= 14.4821  magn=  1.3717
     atom  24 (R=0.179)  charge= 14.4821  magn=  1.3717
     atom  25 (R=0.179)  charge= 14.4821  magn=  1.3717
     atom  26 (R=0.179)  charge= 14.4821  magn=  1.3717
     atom  27 (R=0.179)  charge= 14.4574  magn=  1.6812
     atom  28 (R=0.179)  charge= 14.4574  magn=  1.6812
     atom  29 (R=0.179)  charge= 14.3696  magn=  2.4328
     atom  30 (R=0.179)  charge=  2.0519  magn= -0.0839
     atom  31 (R=0.179)  charge=  2.0503  magn= -0.0748
     atom  32 (R=0.179)  charge=  2.0503  magn= -0.0748

     total cpu time spent up to now is     5757.9 secs

     End of self-consistent calculation

 ------ SPIN UP ------------


          k = 0.0000 0.0000 0.0000 ( 16353 PWs)   bands (ev):

   -71.0886 -71.0875 -71.0146 -71.0144 -70.9814 -70.9811 -70.8941 -70.8924
   -70.7632 -70.1180 -70.1179 -70.1161 -70.1161 -70.1133 -70.1133 -70.1104
   -70.1081 -69.9099 -69.9082 -69.9062 -69.9062 -69.9033 -69.9033 -69.9005
   -69.8981 -37.1515 -37.1487 -37.1487 -37.1448 -37.1448 -37.1369 -37.0788
   -37.0782 -37.0771 -37.0771 -37.0765 -37.0765 -37.0660 -37.0660 -37.0654
   -37.0654 -37.0113 -36.9997 -36.9997 -36.9960 -36.9909 -36.9900 -36.8913
   -36.8913 -36.8146 -36.7920 -36.7920 -36.2213 -36.2073 -36.2036 -36.2001
   -36.2001 -36.1996 -36.1881 -36.1790 -36.1790 -36.1754 -36.1754 -36.1750
   -36.1728 -36.1666 -36.1666 -36.1654 -36.1457 -36.1402 -36.1376 -36.1376
   -36.1321 -36.1291 -36.1288 -36.1288 -36.0143 -36.0110 -36.0066 -36.0021
   -36.0021 -36.0017 -35.9963 -35.9963 -35.9914 -35.9899 -35.9829 -35.9829
   -35.9611 -35.9588 -35.9588 -35.9572 -35.9470 -35.9439 -35.9427 -35.9427
   -35.9394 -35.9394 -35.9380 -35.9349   6.2527   7.2184   7.4973   8.8250
     8.8261   8.8950   8.9544  11.1985  11.1993  11.1993  11.3183  11.8822
    11.8822  11.9129  12.1534  12.1534  12.3874  12.7286  12.8562  12.8671
    12.8797  12.8797  13.0105  13.0900  13.1300  13.1361  13.2269  13.3439
    13.3439  13.4022  13.4836  13.5501  13.5777  13.6264  13.6961  13.6961
    13.7186  13.7306  13.7944  13.8562  13.8965  13.8965  14.2049  14.2049
    14.2614  14.3531  14.3612  14.3612  14.3963  14.3974  14.3974  14.4464
    14.4895  14.4939  14.4939  14.5127  14.5127  14.5170  14.5170  14.5698
    14.5698  14.5892  14.6035  14.6035  14.6717  14.6724  14.7344  14.7630
    14.7630  14.7656  14.9898  14.9898  15.2567  15.2898  15.2984  15.2984
    15.3332  15.4466  15.5518  15.5518  15.6543  15.6543  15.7919  15.8009
    15.8625  15.8788  15.9259  16.0488  16.0920  16.0920  16.1095  16.1202
    16.1648  16.2005  16.2099  16.2099  16.2207  16.2807  16.2807  16.2825
    16.2988  16.3010  16.3027  16.3352  16.3795  16.3795  16.4749  16.5111
    16.5164  16.5164  16.5817  16.6194  16.6299  16.7061  16.7061  16.7228
    16.7360  16.7412  16.7698  16.7698  16.7912  16.8868  16.8868  16.9023
    16.9945  17.0158  17.0464  17.0598  17.0598  17.0668  17.0770  17.0781
    17.0781  17.1612  17.1924  17.2130  17.4627  17.4627  17.4724  17.4751
    17.6004  17.6063  17.6063  17.6727  17.6727  17.6895  17.7333  17.7333
    19.3434  19.4290  19.5036  19.5036  19.6091  19.6091  21.1694  21.4606
    21.4832

          k = 0.0000 0.0000 0.2000 ( 16335 PWs)   bands (ev):

   -71.0884 -71.0876 -71.0145 -71.0144 -70.9812 -70.9812 -70.8939 -70.8925
   -70.7632 -70.1181 -70.1176 -70.1162 -70.1155 -70.1138 -70.1128 -70.1110
   -70.1081 -69.9097 -69.9078 -69.9066 -69.9056 -69.9039 -69.9028 -69.9010
   -69.8981 -37.1501 -37.1484 -37.1482 -37.1452 -37.1450 -37.1383 -37.0782
   -37.0780 -37.0767 -37.0766 -37.0764 -37.0762 -37.0662 -37.0660 -37.0657
   -37.0655 -37.0092 -36.9998 -36.9998 -36.9965 -36.9918 -36.9912 -36.8914
   -36.8846 -36.8146 -36.7996 -36.7921 -36.2166 -36.2032 -36.2023 -36.2003
   -36.1966 -36.1952 -36.1862 -36.1802 -36.1790 -36.1779 -36.1758 -36.1743
   -36.1731 -36.1670 -36.1663 -36.1631 -36.1475 -36.1430 -36.1408 -36.1371
   -36.1358 -36.1327 -36.1320 -36.1289 -36.0115 -36.0060 -36.0040 -36.0019
   -36.0018 -35.9963 -35.9960 -35.9920 -35.9902 -35.9880 -35.9840 -35.9840
   -35.9611 -35.9590 -35.9587 -35.9574 -35.9505 -35.9478 -35.9473 -35.9463
   -35.9423 -35.9394 -35.9392 -35.9376   6.4308   7.3717   7.6260   8.5102
     8.8110   8.8390   8.8679  11.0318  11.3248  11.3391  11.3467  11.6131
    11.8273  11.9785  12.0296  12.2627  12.4578  12.6946  12.7037  12.7196
    12.8692  12.9942  13.0204  13.1043  13.1496  13.1606  13.2080  13.2314
    13.3487  13.4107  13.4671  13.5294  13.5575  13.5635  13.5713  13.6683
    13.6695  13.6945  13.9490  13.9521  13.9781  14.0850  14.1379  14.1925
    14.2176  14.2204  14.2359  14.2884  14.3191  14.3351  14.3379  14.3421
    14.3570  14.3738  14.3886  14.3940  14.4265  14.4600  14.5467  14.5977
    14.6126  14.6305  14.6496  14.6636  14.6677  14.8293  14.8301  14.8356
    15.0144  15.0620  15.1548  15.2012  15.2154  15.2401  15.2661  15.3608
    15.3661  15.4036  15.5727  15.6077  15.6359  15.6633  15.8074  15.8096
    15.8294  15.8319  15.8930  15.9002  15.9045  15.9415  15.9738  16.0036
    16.0174  16.0617  16.1068  16.1404  16.1443  16.1893  16.1939  16.2131
    16.2300  16.2444  16.2494  16.2803  16.3354  16.3366  16.3762  16.4359
    16.4682  16.4767  16.4999  16.5573  16.5575  16.5702  16.5704  16.7413
    16.7415  16.7638  16.7653  16.8566  16.9384  16.9523  16.9962  17.0091
    17.0490  17.0677  17.1093  17.1215  17.1653  17.1842  17.2128  17.2680
    17.2686  17.2976  17.3192  17.3199  17.3444  17.3930  17.4967  17.6548
    17.6640  17.7756  17.8158  17.8391  17.8758  18.0681  18.1093  18.2873
    19.1688  19.1947  19.2078  19.3198  19.6972  19.7808  20.9173  21.3919
    21.4657

          k = 0.0000 0.0000 0.4000 ( 16329 PWs)   bands (ev):

   -71.0882 -71.0878 -71.0145 -71.0144 -70.9812 -70.9812 -70.8934 -70.8929
   -70.7632 -70.1177 -70.1165 -70.1164 -70.1150 -70.1141 -70.1124 -70.1113
   -70.1097 -69.9086 -69.9075 -69.9066 -69.9051 -69.9041 -69.9025 -69.9013
   -69.8997 -37.1475 -37.1469 -37.1464 -37.1463 -37.1457 -37.1418 -37.0776
   -37.0772 -37.0764 -37.0760 -37.0759 -37.0756 -37.0667 -37.0662 -37.0661
   -37.0658 -37.0040 -36.9999 -36.9999 -36.9984 -36.9954 -36.9917 -36.8917
   -36.8700 -36.8157 -36.8144 -36.7924 -36.2061 -36.1993 -36.1987 -36.1987
   -36.1928 -36.1857 -36.1846 -36.1844 -36.1823 -36.1765 -36.1749 -36.1738
   -36.1662 -36.1649 -36.1644 -36.1580 -36.1540 -36.1530 -36.1529 -36.1488
   -36.1367 -36.1346 -36.1337 -36.1289 -36.0080 -36.0041 -36.0015 -36.0013
   -35.9938 -35.9924 -35.9893 -35.9866 -35.9834 -35.9810 -35.9787 -35.9783
   -35.9646 -35.9642 -35.9631 -35.9625 -35.9586 -35.9577 -35.9573 -35.9570
   -35.9413 -35.9400 -35.9396 -35.9394   6.9365   7.6719   7.7970   8.0273
     8.3643   8.6530   8.9409  10.8083  11.4684  11.5059  11.6695  11.7115
    11.7921  11.8906  12.0947  12.2186  12.3260  12.4316  12.6278  12.6928
    12.7779  12.8154  12.8485  12.9282  12.9586  13.1216  13.2298  13.2605
    13.3121  13.3906  13.4738  13.5606  13.6763  13.6840  13.6874  13.7094
    13.7182  13.7189  13.7567  13.8260  13.8768  13.9831  14.0669  14.0882
    14.1719  14.1996  14.2002  14.2328  14.2485  14.2640  14.3510  14.4213
    14.4267  14.4372  14.4374  14.4695  14.4708  14.5014  14.5434  14.5854
    14.6131  14.6331  14.6777  14.7345  14.7741  14.7788  14.8187  14.8890
    14.9249  14.9695  15.0464  15.1220  15.1465  15.2544  15.3041  15.4182
    15.4358  15.4684  15.5172  15.5277  15.6320  15.6464  15.6927  15.6941
    15.7317  15.8599  15.9057  15.9075  15.9469  15.9551  15.9807  16.0084
    16.0211  16.0267  16.0459  16.0799  16.0955  16.1217  16.1494  16.1751
    16.1867  16.2100  16.2138  16.2268  16.2368  16.2798  16.2799  16.3246
    16.3399  16.3854  16.3860  16.4551  16.4980  16.5177  16.5936  16.6521
    16.6535  16.7663  16.7772  16.8943  16.9179  16.9448  16.9551  16.9936
    17.0277  17.0694  17.1042  17.1279  17.1583  17.1764  17.2012  17.3493
    17.3922  17.4508  17.5043  17.5365  17.5682  17.6461  17.6729  17.8200
    17.9037  18.1560  18.2677  18.5494  18.5871  18.6775  18.6901  18.7828
    18.8911  19.0165  19.2934  19.4898  19.9767  20.0449  20.2435  20.2732
    20.4552

          k = 0.0000 0.2000 0.2000 ( 16378 PWs)   bands (ev):

   -71.0884 -71.0878 -71.0146 -71.0145 -70.9813 -70.9812 -70.8938 -70.8927
   -70.7633 -70.1178 -70.1172 -70.1158 -70.1157 -70.1134 -70.1132 -70.1115
   -70.1088 -69.9093 -69.9074 -69.9061 -69.9060 -69.9034 -69.9033 -69.9015
   -69.8988 -37.1489 -37.1485 -37.1473 -37.1459 -37.1448 -37.1393 -37.0778
   -37.0777 -37.0770 -37.0764 -37.0760 -37.0760 -37.0664 -37.0660 -37.0660
   -37.0655 -37.0075 -37.0007 -36.9991 -36.9968 -36.9931 -36.9914 -36.8852
   -36.8841 -36.8146 -36.7998 -36.7996 -36.2127 -36.2014 -36.1980 -36.1964
   -36.1952 -36.1947 -36.1824 -36.1806 -36.1804 -36.1776 -36.1754 -36.1742
   -36.1733 -36.1686 -36.1639 -36.1635 -36.1493 -36.1448 -36.1426 -36.1384
   -36.1383 -36.1357 -36.1345 -36.1328 -36.0054 -36.0045 -36.0004 -36.0000
   -35.9965 -35.9958 -35.9932 -35.9915 -35.9898 -35.9869 -35.9858 -35.9840
   -35.9610 -35.9603 -35.9576 -35.9575 -35.9525 -35.9490 -35.9484 -35.9477
   -35.9464 -35.9445 -35.9421 -35.9418   6.6053   7.5203   7.7516   8.5344
     8.6099   8.7427   8.8457  10.9403  11.2404  11.2701  11.4787  11.4792
    11.5721  11.9239  12.2132  12.2256  12.3138  12.6491  12.7496  12.8010
    12.8068  12.8615  12.9147  12.9892  13.0649  13.1199  13.1854  13.2377
    13.2609  13.3075  13.4048  13.5881  13.6128  13.6768  13.7010  13.7555
    13.7765  13.8268  13.8310  13.8531  14.0039  14.0359  14.1589  14.1599
    14.2033  14.2480  14.2498  14.2917  14.3024  14.3331  14.3342  14.3394
    14.3407  14.3757  14.3766  14.4024  14.4110  14.4244  14.4657  14.5330
    14.5833  14.6309  14.7528  14.8152  14.8637  14.8721  14.8783  14.9151
    14.9856  15.0425  15.1010  15.1194  15.1281  15.3015  15.3080  15.3475
    15.4455  15.4759  15.5996  15.6018  15.6197  15.6620  15.7538  15.7810
    15.7892  15.8448  15.8624  15.8868  15.8955  15.9242  15.9508  15.9611
    15.9729  16.0098  16.0236  16.0323  16.0867  16.1307  16.1434  16.1808
    16.1914  16.2238  16.2666  16.3307  16.3317  16.3333  16.3529  16.3855
    16.4144  16.4510  16.4542  16.4773  16.5731  16.6186  16.6346  16.6541
    16.6962  16.7889  16.7975  16.8752  16.8862  16.9565  16.9602  17.0051
    17.0052  17.0184  17.0915  17.0953  17.1128  17.1260  17.1509  17.1762
    17.2876  17.2940  17.3399  17.3734  17.5597  17.6632  17.7158  17.7870
    17.8894  17.9369  17.9572  17.9639  18.2468  18.4058  18.4591  18.5553
    18.5923  18.6937  19.8537  19.8769  19.9773  20.0659  20.4733  20.7886
    21.7005

          k = 0.0000 0.2000 0.4000 ( 16364 PWs)   bands (ev):

   -71.0882 -71.0879 -71.0145 -71.0145 -70.9813 -70.9812 -70.8935 -70.8929
   -70.7633 -70.1174 -70.1162 -70.1160 -70.1144 -70.1144 -70.1129 -70.1118
   -70.1101 -69.9084 -69.9071 -69.9062 -69.9046 -69.9045 -69.9030 -69.9018
   -69.9001 -37.1479 -37.1470 -37.1461 -37.1459 -37.1451 -37.1422 -37.0774
   -37.0770 -37.0765 -37.0763 -37.0759 -37.0758 -37.0665 -37.0661 -37.0660
   -37.0657 -37.0033 -37.0013 -36.9987 -36.9986 -36.9956 -36.9916 -36.8849
   -36.8699 -36.8156 -36.8147 -36.7998 -36.2039 -36.1988 -36.1952 -36.1934
   -36.1907 -36.1871 -36.1854 -36.1795 -36.1782 -36.1756 -36.1751 -36.1743
   -36.1665 -36.1659 -36.1635 -36.1598 -36.1560 -36.1534 -36.1530 -36.1493
   -36.1409 -36.1380 -36.1373 -36.1338 -36.0021 -35.9993 -35.9962 -35.9959
   -35.9930 -35.9921 -35.9886 -35.9867 -35.9834 -35.9811 -35.9792 -35.9788
   -35.9641 -35.9640 -35.9638 -35.9631 -35.9594 -35.9583 -35.9568 -35.9562
   -35.9464 -35.9454 -35.9452 -35.9447   7.0983   7.8065   7.9246   8.1273
     8.4267   8.6088   8.8077  10.7461  11.1376  11.2620  11.4965  11.5275
    11.6428  11.8734  11.9027  12.0513  12.4186  12.5474  12.5753  12.6973
    12.7464  12.8645  12.8828  12.9227  12.9727  13.0243  13.0507  13.1894
    13.2912  13.3349  13.3959  13.5520  13.5978  13.6920  13.7164  13.8358
    13.8918  13.9012  13.9096  13.9235  13.9748  14.1022  14.1428  14.1700
    14.1886  14.1988  14.2134  14.2169  14.2455  14.2506  14.2739  14.3065
    14.3250  14.3667  14.4051  14.4653  14.5098  14.5405  14.5431  14.5805
    14.6672  14.7236  14.7422  14.7646  14.8006  14.8227  14.9019  14.9267
    14.9453  14.9799  14.9855  15.0116  15.1031  15.2690  15.3364  15.4362
    15.4705  15.5267  15.5429  15.5791  15.6378  15.6546  15.6819  15.7230
    15.7403  15.8090  15.8578  15.8838  15.9169  15.9352  15.9381  15.9625
    15.9808  16.0187  16.0256  16.0669  16.0807  16.0833  16.1485  16.1506
    16.1785  16.1857  16.2152  16.2212  16.2420  16.2497  16.2666  16.3233
    16.3430  16.3719  16.3952  16.4484  16.5282  16.5312  16.5782  16.6159
    16.6304  16.8529  16.8799  16.8882  16.9313  16.9516  16.9768  16.9852
    17.0123  17.0444  17.0561  17.0778  17.0952  17.1456  17.1913  17.2320
    17.2758  17.3457  17.3651  17.4222  17.5132  17.7659  17.8593  17.8896
    17.9294  18.0157  18.1696  18.6554  18.7231  18.8472  18.9781  19.2338
    19.5781  19.6484  19.6587  19.7762  19.8344  19.8610  20.3959  20.5998
    20.8019

          k = 0.0000 0.4000 0.4000 ( 16350 PWs)   bands (ev):

   -71.0881 -71.0880 -71.0145 -71.0145 -70.9813 -70.9812 -70.8933 -70.8931
   -70.7634 -70.1165 -70.1153 -70.1151 -70.1147 -70.1139 -70.1133 -70.1130
   -70.1114 -69.9072 -69.9059 -69.9056 -69.9049 -69.9043 -69.9033 -69.9031
   -69.9014 -37.1481 -37.1477 -37.1451 -37.1447 -37.1447 -37.1433 -37.0770
   -37.0768 -37.0768 -37.0764 -37.0762 -37.0761 -37.0661 -37.0659 -37.0658
   -37.0656 -37.0023 -37.0014 -36.9996 -36.9981 -36.9960 -36.9915 -36.8722
   -36.8677 -36.8157 -36.8154 -36.8150 -36.1993 -36.1969 -36.1901 -36.1900
   -36.1873 -36.1837 -36.1788 -36.1774 -36.1746 -36.1746 -36.1711 -36.1699
   -36.1674 -36.1646 -36.1638 -36.1610 -36.1597 -36.1575 -36.1553 -36.1542
   -36.1470 -36.1447 -36.1446 -36.1416 -35.9943 -35.9933 -35.9882 -35.9874
   -35.9858 -35.9848 -35.9844 -35.9821 -35.9818 -35.9812 -35.9798 -35.9773
   -35.9676 -35.9670 -35.9661 -35.9634 -35.9618 -35.9610 -35.9597 -35.9596
   -35.9567 -35.9550 -35.9536 -35.9531   7.5480   8.1488   8.1688   8.2351
     8.3572   8.4669   8.5523  10.7005  10.7063  10.8132  10.9606  11.2328
    11.5374  11.7275  11.9345  12.2551  12.6534  12.6884  12.6919  12.7162
    12.7260  12.7343  12.8040  12.8201  12.8318  12.8806  12.8851  12.9380
    13.0806  13.3440  13.5385  13.6427  13.6878  13.6908  13.6951  13.7414
    14.0469  14.0769  14.1111  14.1191  14.1573  14.1747  14.1848  14.1970
    14.2104  14.2114  14.2162  14.2238  14.2299  14.2461  14.2588  14.2705
    14.2851  14.3023  14.3178  14.4091  14.4662  14.5024  14.5990  14.7022
    14.7085  14.7236  14.7291  14.7356  14.7674  14.8631  14.9420  14.9516
    14.9735  14.9925  15.0328  15.0387  15.0409  15.0697  15.2260  15.5087
    15.5289  15.5411  15.5996  15.6814  15.6941  15.7064  15.7275  15.7285
    15.7376  15.7599  15.7817  15.8155  15.8163  15.8244  15.8815  15.9346
    15.9435  15.9894  15.9940  16.0203  16.1045  16.1371  16.1614  16.1884
    16.1924  16.2011  16.2294  16.2305  16.2439  16.2444  16.2520  16.2521
    16.2896  16.3759  16.4076  16.4354  16.5269  16.5502  16.6324  16.6325
    16.6562  16.7943  16.8040  16.8169  16.8290  16.8306  16.8735  16.8896
    16.8904  16.9632  16.9862  17.0163  17.1134  17.1621  17.1738  17.1782
    17.2118  17.2624  17.3834  17.4137  17.4938  17.5649  18.0411  18.0597
    18.2491  18.3910  18.4423  18.9646  19.0431  19.0662  19.2223  19.3907
    20.1233  20.4101  20.4358  20.5341  20.5958  20.7319  21.1742  21.2024
    21.5630

          k = 0.1000 0.0000 0.0000 ( 16382 PWs)   bands (ev):

   -71.0886 -71.0875 -71.0146 -71.0144 -70.9813 -70.9812 -70.8942 -70.8924
   -70.7632 -70.1182 -70.1181 -70.1161 -70.1161 -70.1133 -70.1133 -70.1105
   -70.1079 -69.9100 -69.9084 -69.9062 -69.9062 -69.9034 -69.9034 -69.9005
   -69.8979 -37.1515 -37.1487 -37.1487 -37.1448 -37.1448 -37.1369 -37.0789
   -37.0781 -37.0772 -37.0772 -37.0764 -37.0764 -37.0662 -37.0662 -37.0652
   -37.0652 -37.0113 -36.9997 -36.9997 -36.9960 -36.9909 -36.9900 -36.8913
   -36.8913 -36.8146 -36.7920 -36.7920 -36.2212 -36.2073 -36.2035 -36.2001
   -36.2001 -36.1996 -36.1881 -36.1789 -36.1789 -36.1754 -36.1754 -36.1750
   -36.1729 -36.1667 -36.1667 -36.1656 -36.1457 -36.1402 -36.1376 -36.1376
   -36.1321 -36.1291 -36.1288 -36.1288 -36.0143 -36.0109 -36.0067 -36.0021
   -36.0021 -36.0015 -35.9963 -35.9963 -35.9913 -35.9899 -35.9829 -35.9829
   -35.9612 -35.9589 -35.9589 -35.9573 -35.9470 -35.9439 -35.9427 -35.9427
   -35.9394 -35.9394 -35.9380 -35.9349   6.2904   6.9888   7.7717   8.7525
     8.8375   8.8843   8.9415  11.0923  11.2280  11.2280  11.3683  11.7521
    11.7521  11.9376  12.2917  12.2917  12.4193  12.7384  12.8120  12.8406
    12.8406  12.9006  13.0409  13.1013  13.1406  13.1447  13.2805  13.3536
    13.3605  13.3605  13.4075  13.4323  13.6296  13.6382  13.6382  13.6983
    13.7397  13.8217  13.8522  13.8857  13.9610  13.9610  14.2024  14.2024
    14.2635  14.2826  14.3389  14.3389  14.3601  14.3755  14.3892  14.3892
    14.4317  14.4317  14.4335  14.4641  14.4689  14.4689  14.4806  14.5554
    14.5554  14.6083  14.6135  14.6135  14.6376  14.6376  14.7975  14.7975
    14.9747  14.9980  14.9980  15.0160  15.2200  15.2656  15.3069  15.3069
    15.4277  15.4367  15.5882  15.5882  15.6616  15.6616  15.6880  15.8109
    15.8125  15.9399  15.9993  15.9993  16.0043  16.0300  16.0822  16.0822
    16.0901  16.1362  16.1364  16.2173  16.2324  16.2576  16.2576  16.2856
    16.2907  16.3045  16.3176  16.3552  16.4074  16.4074  16.4764  16.4875
    16.5407  16.5407  16.5423  16.6078  16.6207  16.6328  16.6328  16.6559
    16.6776  16.7700  16.7988  16.7988  16.8038  16.9063  16.9063  16.9538
    16.9953  17.0094  17.0157  17.1123  17.1400  17.1421  17.1421  17.1671
    17.1671  17.1732  17.1926  17.2130  17.4249  17.4486  17.4907  17.4907
    17.6035  17.6035  17.6238  17.6766  17.6766  17.7391  17.7542  17.7542
    18.7600  18.9515  18.9515  19.9852  20.1839  20.1839  21.0893  21.4866
    21.5907

          k = 0.1000 0.0000 0.2000 ( 16394 PWs)   bands (ev):

   -71.0885 -71.0877 -71.0145 -71.0145 -70.9813 -70.9813 -70.8940 -70.8926
   -70.7633 -70.1180 -70.1177 -70.1163 -70.1156 -70.1139 -70.1128 -70.1110
   -70.1083 -69.9097 -69.9080 -69.9066 -69.9056 -69.9040 -69.9028 -69.9010
   -69.8983 -37.1501 -37.1484 -37.1482 -37.1452 -37.1450 -37.1383 -37.0783
   -37.0780 -37.0768 -37.0767 -37.0763 -37.0761 -37.0664 -37.0661 -37.0655
   -37.0654 -37.0092 -36.9998 -36.9998 -36.9965 -36.9918 -36.9912 -36.8914
   -36.8846 -36.8146 -36.7996 -36.7921 -36.2166 -36.2032 -36.2023 -36.2003
   -36.1966 -36.1952 -36.1862 -36.1802 -36.1790 -36.1779 -36.1758 -36.1742
   -36.1731 -36.1671 -36.1663 -36.1632 -36.1475 -36.1431 -36.1408 -36.1371
   -36.1358 -36.1327 -36.1320 -36.1289 -36.0115 -36.0060 -36.0040 -36.0019
   -36.0017 -35.9963 -35.9960 -35.9920 -35.9901 -35.9880 -35.9840 -35.9839
   -35.9612 -35.9590 -35.9588 -35.9575 -35.9505 -35.9478 -35.9473 -35.9463
   -35.9423 -35.9394 -35.9392 -35.9376   6.4680   7.1466   7.8896   8.5230
     8.7459   8.8190   8.8680  10.9963  11.2734  11.3566  11.3688  11.6363
    11.7819  11.8889  12.1070  12.4110  12.4533  12.6154  12.7100  12.7505
    12.8831  12.9338  12.9816  13.1012  13.1502  13.2084  13.2256  13.2708
    13.3341  13.4221  13.4258  13.4590  13.5622  13.6290  13.6333  13.6456
    13.6854  13.7707  13.9173  13.9284  14.0382  14.0642  14.1031  14.1692
    14.1754  14.2428  14.2438  14.2492  14.2909  14.3055  14.3444  14.3551
    14.3578  14.3624  14.3836  14.3894  14.4421  14.4997  14.5007  14.5302
    14.5534  14.6380  14.6519  14.6873  14.7267  14.7832  14.8483  14.9725
    15.0156  15.0403  15.0996  15.1981  15.2265  15.2956  15.3245  15.3651
    15.3846  15.4747  15.5374  15.5978  15.6315  15.6517  15.7209  15.8147
    15.8169  15.8621  15.9011  15.9140  15.9230  15.9267  15.9617  15.9758
    16.0150  16.0152  16.0787  16.0865  16.1159  16.1540  16.1735  16.2247
    16.2389  16.2571  16.3062  16.3150  16.3503  16.3565  16.3713  16.4297
    16.4566  16.4624  16.5075  16.5184  16.5677  16.6071  16.6173  16.6696
    16.7350  16.7663  16.7677  16.8488  16.8938  16.9522  17.0003  17.0109
    17.0495  17.0619  17.0918  17.1400  17.1636  17.2019  17.2269  17.2600
    17.2623  17.3022  17.3390  17.3954  17.4209  17.4696  17.5763  17.6960
    17.7075  17.7659  17.8168  17.8310  17.8905  18.0642  18.0788  18.2644
    18.7133  18.7714  19.0124  19.6500  19.7664  20.5076  20.7679  21.2654
    21.5195

          k = 0.1000 0.0000 0.4000 ( 16352 PWs)   bands (ev):

   -71.0882 -71.0879 -71.0145 -71.0145 -70.9813 -70.9812 -70.8935 -70.8929
   -70.7633 -70.1177 -70.1166 -70.1165 -70.1150 -70.1141 -70.1125 -70.1113
   -70.1096 -69.9086 -69.9076 -69.9066 -69.9052 -69.9042 -69.9025 -69.9013
   -69.8996 -37.1475 -37.1469 -37.1464 -37.1463 -37.1457 -37.1418 -37.0776
   -37.0772 -37.0764 -37.0760 -37.0759 -37.0756 -37.0669 -37.0661 -37.0661
   -37.0658 -37.0040 -36.9999 -36.9999 -36.9984 -36.9954 -36.9916 -36.8917
   -36.8700 -36.8157 -36.8144 -36.7924 -36.2061 -36.1993 -36.1987 -36.1987
   -36.1927 -36.1857 -36.1846 -36.1844 -36.1823 -36.1765 -36.1749 -36.1738
   -36.1661 -36.1650 -36.1644 -36.1580 -36.1540 -36.1530 -36.1529 -36.1488
   -36.1367 -36.1346 -36.1337 -36.1290 -36.0080 -36.0040 -36.0015 -36.0013
   -35.9937 -35.9924 -35.9892 -35.9865 -35.9833 -35.9810 -35.9787 -35.9783
   -35.9647 -35.9642 -35.9631 -35.9625 -35.9586 -35.9577 -35.9573 -35.9570
   -35.9413 -35.9400 -35.9396 -35.9394   6.9718   7.5497   7.7698   8.1495
     8.3528   8.7082   8.9058  10.8217  11.4810  11.5020  11.6063  11.7191
    11.7449  11.9695  12.1106  12.1822  12.2062  12.3596  12.6801  12.6967
    12.7375  12.9047  12.9227  12.9279  12.9980  13.1188  13.2568  13.3016
    13.3415  13.4054  13.4068  13.5526  13.5889  13.6551  13.6814  13.7022
    13.7153  13.7381  13.7770  13.8880  13.9381  13.9742  14.0238  14.1104
    14.1605  14.1764  14.1972  14.2559  14.2724  14.2865  14.3376  14.3491
    14.3990  14.4129  14.4286  14.4580  14.4763  14.5459  14.5824  14.5938
    14.6022  14.6153  14.6195  14.6577  14.7913  14.8086  14.8524  14.8878
    14.9265  15.0280  15.0326  15.1327  15.1693  15.2689  15.3203  15.4091
    15.4546  15.4878  15.4956  15.5287  15.5666  15.6732  15.6747  15.7183
    15.7324  15.8510  15.8930  15.9051  15.9359  15.9611  15.9871  15.9917
    16.0057  16.0187  16.0668  16.0756  16.0897  16.1196  16.1211  16.1476
    16.1719  16.2057  16.2252  16.2261  16.2453  16.2500  16.3037  16.3312
    16.3465  16.3824  16.3837  16.4514  16.4824  16.5504  16.5880  16.6336
    16.6436  16.7808  16.8324  16.9036  16.9318  16.9529  16.9886  17.0482
    17.0660  17.0708  17.1221  17.1257  17.1628  17.1717  17.2015  17.3379
    17.3589  17.4005  17.4566  17.5723  17.6637  17.6655  17.7386  17.7900
    18.0418  18.0715  18.2393  18.3740  18.4355  18.7077  18.8130  18.9528
    18.9803  19.0746  19.0762  19.3088  19.6211  19.9026  20.1181  20.3305
    20.8921

          k = 0.1000 0.2000 0.2000 ( 16363 PWs)   bands (ev):

   -71.0884 -71.0877 -71.0145 -71.0145 -70.9813 -70.9812 -70.8938 -70.8926
   -70.7633 -70.1178 -70.1173 -70.1158 -70.1157 -70.1132 -70.1131 -70.1116
   -70.1089 -69.9092 -69.9075 -69.9061 -69.9060 -69.9033 -69.9032 -69.9016
   -69.8988 -37.1489 -37.1485 -37.1473 -37.1459 -37.1448 -37.1393 -37.0778
   -37.0777 -37.0771 -37.0763 -37.0761 -37.0759 -37.0665 -37.0660 -37.0659
   -37.0654 -37.0075 -37.0007 -36.9991 -36.9969 -36.9931 -36.9913 -36.8852
   -36.8841 -36.8146 -36.7998 -36.7996 -36.2127 -36.2013 -36.1980 -36.1964
   -36.1952 -36.1947 -36.1824 -36.1806 -36.1804 -36.1776 -36.1754 -36.1742
   -36.1734 -36.1687 -36.1640 -36.1635 -36.1492 -36.1449 -36.1426 -36.1384
   -36.1383 -36.1357 -36.1345 -36.1328 -36.0054 -36.0045 -36.0004 -35.9999
   -35.9965 -35.9958 -35.9932 -35.9915 -35.9898 -35.9869 -35.9858 -35.9839
   -35.9611 -35.9603 -35.9577 -35.9575 -35.9525 -35.9490 -35.9484 -35.9477
   -35.9464 -35.9445 -35.9421 -35.9418   6.6418   7.3001   8.0033   8.5523
     8.6120   8.7205   8.7864  10.9083  11.2509  11.2636  11.3883  11.5472
    11.5797  11.8722  12.2490  12.3458  12.3760  12.6038  12.7131  12.7670
    12.7909  12.8181  12.8708  12.9890  12.9914  13.1940  13.2101  13.2326
    13.2869  13.3745  13.4653  13.5954  13.6014  13.6316  13.7057  13.7262
    13.7600  13.7836  13.9131  13.9370  13.9553  14.0628  14.1423  14.1617
    14.1949  14.2017  14.2273  14.2445  14.2681  14.2740  14.3148  14.3508
    14.3548  14.3915  14.4126  14.4311  14.4524  14.4619  14.4969  14.5329
    14.5489  14.5816  14.7273  14.7758  14.8064  14.8487  14.9264  14.9424
    14.9877  15.0540  15.0913  15.1628  15.1826  15.2720  15.3034  15.3995
    15.4832  15.5019  15.5557  15.6172  15.6209  15.6514  15.7468  15.7582
    15.7718  15.8430  15.8750  15.8849  15.8895  15.9194  15.9347  15.9397
    15.9770  15.9900  16.0218  16.0526  16.1054  16.1272  16.1547  16.1687
    16.2007  16.2325  16.2815  16.2842  16.3231  16.3662  16.4057  16.4135
    16.4287  16.4640  16.4721  16.4921  16.5661  16.6199  16.6211  16.6509
    16.7033  16.7562  16.7757  16.8603  16.8786  16.9205  16.9533  16.9937
    17.0030  17.0117  17.0582  17.0600  17.1074  17.1452  17.1566  17.1949
    17.2613  17.3230  17.3318  17.3579  17.5945  17.6105  17.7738  17.8249
    17.9438  17.9900  18.0591  18.0974  18.1002  18.2130  18.4559  18.5462
    18.7160  18.8912  19.2349  19.3947  20.1427  20.5465  20.6159  21.1411
    21.6887

          k = 0.1000 0.2000 0.4000 ( 16331 PWs)   bands (ev):

   -71.0881 -71.0879 -71.0145 -71.0144 -70.9812 -70.9812 -70.8934 -70.8930
   -70.7633 -70.1173 -70.1162 -70.1160 -70.1145 -70.1144 -70.1128 -70.1118
   -70.1101 -69.9082 -69.9071 -69.9061 -69.9046 -69.9046 -69.9029 -69.9018
   -69.9001 -37.1479 -37.1470 -37.1461 -37.1459 -37.1451 -37.1422 -37.0774
   -37.0770 -37.0766 -37.0762 -37.0759 -37.0758 -37.0666 -37.0661 -37.0660
   -37.0657 -37.0033 -37.0013 -36.9987 -36.9986 -36.9956 -36.9916 -36.8849
   -36.8699 -36.8156 -36.8147 -36.7998 -36.2038 -36.1988 -36.1952 -36.1934
   -36.1907 -36.1871 -36.1853 -36.1795 -36.1782 -36.1756 -36.1751 -36.1744
   -36.1665 -36.1660 -36.1636 -36.1598 -36.1560 -36.1534 -36.1530 -36.1493
   -36.1409 -36.1380 -36.1373 -36.1338 -36.0021 -35.9992 -35.9962 -35.9959
   -35.9929 -35.9920 -35.9886 -35.9867 -35.9834 -35.9811 -35.9792 -35.9788
   -35.9641 -35.9640 -35.9638 -35.9631 -35.9595 -35.9583 -35.9568 -35.9563
   -35.9464 -35.9454 -35.9452 -35.9447   7.1329   7.6899   7.8971   8.2452
     8.4069   8.6525   8.7891  10.7807  11.1182  11.3332  11.3885  11.4946
    11.6283  11.7887  12.0033  12.1261  12.3917  12.4740  12.5991  12.6597
    12.7572  12.8426  12.9348  12.9625  12.9760  13.0431  13.0570  13.1136
    13.2666  13.3622  13.4213  13.5527  13.6207  13.6342  13.8042  13.8304
    13.8652  13.8764  13.9094  13.9337  13.9930  14.0964  14.1340  14.1597
    14.1809  14.1954  14.2319  14.2457  14.2534  14.2637  14.2785  14.3112
    14.3254  14.3600  14.4153  14.4421  14.4724  14.4772  14.5486  14.6075
    14.6482  14.6837  14.7312  14.7758  14.8172  14.8336  14.8836  14.9315
    14.9406  14.9631  15.0230  15.0604  15.1283  15.2701  15.3520  15.4176
    15.4850  15.5329  15.5540  15.5692  15.5781  15.6647  15.6768  15.7311
    15.7407  15.8379  15.8462  15.8878  15.8955  15.9232  15.9734  15.9840
    15.9960  16.0254  16.0282  16.0637  16.0854  16.1037  16.1139  16.1509
    16.1682  16.1929  16.2120  16.2234  16.2478  16.2577  16.2847  16.3203
    16.3405  16.3722  16.4095  16.4517  16.5101  16.5489  16.5803  16.6200
    16.6800  16.8534  16.8852  16.8888  16.9002  16.9414  16.9609  16.9806
    17.0067  17.0319  17.0433  17.0699  17.0796  17.1143  17.1836  17.1935
    17.2403  17.2906  17.3488  17.3921  17.6072  17.6679  17.8800  18.0659
    18.0992  18.1887  18.2829  18.3800  18.7590  18.9185  19.0557  19.1723
    19.2799  19.4171  19.4712  19.6755  19.9186  20.0853  20.1979  20.6923
    21.2168

          k = 0.1000 0.4000 0.4000 ( 16366 PWs)   bands (ev):

   -71.0881 -71.0880 -71.0145 -71.0145 -70.9813 -70.9812 -70.8933 -70.8931
   -70.7634 -70.1165 -70.1153 -70.1152 -70.1147 -70.1139 -70.1133 -70.1130
   -70.1114 -69.9072 -69.9059 -69.9057 -69.9049 -69.9042 -69.9034 -69.9031
   -69.9014 -37.1481 -37.1477 -37.1451 -37.1447 -37.1447 -37.1433 -37.0770
   -37.0768 -37.0768 -37.0764 -37.0762 -37.0761 -37.0661 -37.0659 -37.0658
   -37.0656 -37.0023 -37.0014 -36.9996 -36.9981 -36.9960 -36.9915 -36.8722
   -36.8677 -36.8157 -36.8154 -36.8150 -36.1993 -36.1969 -36.1901 -36.1899
   -36.1873 -36.1837 -36.1788 -36.1774 -36.1746 -36.1746 -36.1712 -36.1699
   -36.1674 -36.1646 -36.1638 -36.1610 -36.1598 -36.1575 -36.1553 -36.1542
   -36.1470 -36.1447 -36.1446 -36.1416 -35.9943 -35.9932 -35.9881 -35.9873
   -35.9857 -35.9848 -35.9844 -35.9821 -35.9818 -35.9812 -35.9798 -35.9773
   -35.9676 -35.9670 -35.9661 -35.9634 -35.9618 -35.9610 -35.9597 -35.9596
   -35.9567 -35.9550 -35.9536 -35.9531   7.5800   8.0471   8.1739   8.2492
     8.4293   8.4302   8.5518  10.6379  10.8763  10.8864  10.9109  11.3116
    11.4473  11.6595  11.8270  12.3384  12.6373  12.6618  12.6635  12.6717
    12.7012  12.7304  12.8000  12.8162  12.8646  12.8783  12.9123  12.9550
    13.0210  13.3896  13.5418  13.6283  13.6828  13.7388  13.7702  13.7929
    14.0092  14.0378  14.0959  14.1208  14.1431  14.1713  14.1751  14.1922
    14.1959  14.1966  14.2014  14.2203  14.2241  14.2625  14.2741  14.2844
    14.2907  14.2942  14.3192  14.4274  14.4339  14.4794  14.6027  14.6091
    14.7020  14.7193  14.7515  14.7755  14.8067  14.8995  14.9285  14.9486
    15.0160  15.0228  15.0247  15.0362  15.0419  15.0991  15.2189  15.5206
    15.5281  15.5723  15.5948  15.6647  15.6678  15.6788  15.7150  15.7310
    15.7456  15.7505  15.7756  15.8138  15.8608  15.8650  15.8993  15.9520
    15.9665  15.9847  15.9912  16.0497  16.1123  16.1327  16.1487  16.1719
    16.1927  16.2031  16.2032  16.2244  16.2336  16.2453  16.2568  16.2656
    16.2998  16.3651  16.4101  16.4395  16.5366  16.5533  16.6236  16.6371
    16.6522  16.8060  16.8225  16.8254  16.8309  16.8346  16.8873  16.9031
    16.9092  16.9525  16.9618  17.0100  17.0927  17.1139  17.1364  17.1925
    17.2393  17.2407  17.3272  17.3776  17.4268  17.6100  17.8842  17.9193
    18.2945  18.5595  18.7154  18.8141  19.1500  19.3019  19.4300  19.5681
    19.9721  19.9738  20.1941  20.4565  20.5403  20.7235  20.7830  21.4655
    21.4956

          k = 0.2000 0.0000 0.0000 ( 16358 PWs)   bands (ev):

   -71.0886 -71.0875 -71.0145 -71.0145 -70.9812 -70.9812 -70.8941 -70.8923
   -70.7632 -70.1183 -70.1181 -70.1160 -70.1160 -70.1133 -70.1133 -70.1105
   -70.1077 -69.9100 -69.9084 -69.9061 -69.9061 -69.9034 -69.9034 -69.9005
   -69.8976 -37.1515 -37.1487 -37.1487 -37.1448 -37.1448 -37.1369 -37.0789
   -37.0780 -37.0774 -37.0774 -37.0762 -37.0762 -37.0664 -37.0664 -37.0650
   -37.0650 -37.0113 -36.9997 -36.9997 -36.9961 -36.9908 -36.9901 -36.8913
   -36.8913 -36.8146 -36.7920 -36.7920 -36.2211 -36.2073 -36.2034 -36.2002
   -36.2002 -36.1994 -36.1881 -36.1789 -36.1789 -36.1754 -36.1754 -36.1750
   -36.1730 -36.1667 -36.1667 -36.1659 -36.1456 -36.1402 -36.1376 -36.1376
   -36.1321 -36.1291 -36.1288 -36.1288 -36.0143 -36.0109 -36.0067 -36.0021
   -36.0021 -36.0012 -35.9963 -35.9963 -35.9912 -35.9899 -35.9828 -35.9828
   -35.9614 -35.9589 -35.9589 -35.9574 -35.9470 -35.9439 -35.9427 -35.9427
   -35.9394 -35.9394 -35.9380 -35.9349   6.3821   6.7497   8.1457   8.5284
     8.8684   8.8805   8.9082  10.9897  11.2954  11.2954  11.3826  11.5925
    11.5925  11.9719  12.4767  12.4767  12.5330  12.6925  12.7446  12.7446
    12.7535  12.9874  13.0365  13.1144  13.1519  13.2198  13.2261  13.2526
    13.3352  13.3919  13.3919  13.5548  13.5693  13.5693  13.6667  13.7424
    13.7428  13.9065  13.9483  13.9777  14.0332  14.0332  14.0686  14.2071
    14.2181  14.2181  14.2306  14.2994  14.2994  14.3451  14.3451  14.3548
    14.3741  14.4026  14.4069  14.4069  14.4359  14.4359  14.4634  14.4952
    14.5580  14.5580  14.6625  14.6625  14.6774  14.6774  14.8805  14.8805
    14.9680  14.9680  15.1980  15.2243  15.2656  15.2798  15.3685  15.3685
    15.3882  15.4845  15.4874  15.6476  15.6476  15.7011  15.7011  15.8510
    15.8595  15.8595  15.8828  15.9125  15.9125  15.9290  15.9554  16.0571
    16.0617  16.1060  16.1060  16.1436  16.1557  16.2110  16.2352  16.3061
    16.3094  16.3162  16.3580  16.3943  16.4484  16.4817  16.4953  16.5268
    16.5487  16.5487  16.5699  16.5699  16.5797  16.5797  16.5858  16.5911
    16.6056  16.7302  16.7302  16.8242  16.8367  16.9189  16.9619  16.9619
    16.9955  17.0156  17.0615  17.1392  17.1923  17.2116  17.2129  17.2151
    17.2151  17.2628  17.2793  17.2793  17.3317  17.3814  17.5050  17.5050
    17.6461  17.6461  17.6477  17.6772  17.6772  17.9085  17.9504  17.9504
    18.2455  18.4000  18.4000  20.4579  20.7875  20.7875  20.8399  21.4647
    21.4723

          k = 0.2000 0.0000 0.2000 ( 16419 PWs)   bands (ev):

   -71.0885 -71.0877 -71.0146 -71.0145 -70.9813 -70.9813 -70.8940 -70.8926
   -70.7633 -70.1180 -70.1178 -70.1163 -70.1156 -70.1139 -70.1128 -70.1111
   -70.1084 -69.9096 -69.9080 -69.9066 -69.9056 -69.9039 -69.9028 -69.9011
   -69.8984 -37.1501 -37.1484 -37.1482 -37.1452 -37.1450 -37.1383 -37.0783
   -37.0779 -37.0769 -37.0768 -37.0761 -37.0760 -37.0666 -37.0663 -37.0653
   -37.0653 -37.0092 -36.9998 -36.9998 -36.9966 -36.9918 -36.9911 -36.8914
   -36.8846 -36.8146 -36.7996 -36.7921 -36.2165 -36.2031 -36.2022 -36.2003
   -36.1965 -36.1952 -36.1862 -36.1802 -36.1790 -36.1778 -36.1758 -36.1742
   -36.1732 -36.1673 -36.1664 -36.1633 -36.1475 -36.1431 -36.1408 -36.1371
   -36.1358 -36.1327 -36.1320 -36.1289 -36.0115 -36.0060 -36.0041 -36.0019
   -36.0014 -35.9963 -35.9960 -35.9920 -35.9900 -35.9880 -35.9839 -35.9839
   -35.9614 -35.9590 -35.9588 -35.9576 -35.9505 -35.9478 -35.9473 -35.9463
   -35.9423 -35.9394 -35.9392 -35.9376   6.5582   6.9134   8.2406   8.5336
     8.5784   8.7569   8.8837  10.9292  11.2638  11.3790  11.4404  11.4915
    11.7218  11.9659  12.2037  12.3529  12.6090  12.6247  12.7571  12.7809
    12.7999  12.8453  12.9131  13.0262  13.1375  13.1794  13.3277  13.3787
    13.3922  13.4178  13.4454  13.4644  13.4918  13.6325  13.6702  13.7029
    13.7295  13.8086  13.8334  13.9123  14.0219  14.0772  14.0952  14.1310
    14.2130  14.2173  14.2333  14.2409  14.2586  14.3111  14.3180  14.3352
    14.3406  14.3432  14.3619  14.3795  14.4339  14.4694  14.4826  14.5465
    14.5589  14.6034  14.6138  14.7229  14.7739  14.8186  14.9059  14.9323
    14.9816  15.0206  15.1974  15.2605  15.2719  15.3086  15.3551  15.4005
    15.4351  15.4741  15.5410  15.5558  15.6331  15.6772  15.6856  15.7736
    15.8113  15.8470  15.8807  15.8862  15.9109  15.9230  15.9376  15.9414
    15.9660  15.9856  16.0063  16.0392  16.0992  16.1595  16.2036  16.2190
    16.2315  16.3030  16.3211  16.3389  16.3415  16.3800  16.4375  16.4458
    16.4495  16.4845  16.4946  16.5103  16.5801  16.6202  16.6339  16.6618
    16.6903  16.7306  16.7574  16.8116  16.8765  16.9155  16.9352  17.0013
    17.0559  17.0751  17.1285  17.1443  17.1576  17.1901  17.2019  17.2432
    17.2782  17.3611  17.4223  17.4816  17.5550  17.6674  17.6868  17.7225
    17.7743  17.7795  17.8924  17.9165  17.9405  18.0043  18.0991  18.1633
    18.3348  18.3453  18.4597  20.0471  20.2593  20.4633  20.8516  21.2527
    21.7151

          k = 0.2000 0.0000 0.4000 ( 16376 PWs)   bands (ev):

   -71.0882 -71.0880 -71.0145 -71.0145 -70.9813 -70.9812 -70.8934 -70.8930
   -70.7633 -70.1178 -70.1166 -70.1164 -70.1151 -70.1142 -70.1124 -70.1114
   -70.1096 -69.9087 -69.9076 -69.9066 -69.9052 -69.9042 -69.9024 -69.9014
   -69.8996 -37.1475 -37.1469 -37.1464 -37.1463 -37.1457 -37.1418 -37.0775
   -37.0772 -37.0764 -37.0761 -37.0759 -37.0756 -37.0670 -37.0661 -37.0659
   -37.0658 -37.0040 -36.9999 -36.9999 -36.9984 -36.9954 -36.9916 -36.8917
   -36.8700 -36.8157 -36.8144 -36.7924 -36.2060 -36.1993 -36.1986 -36.1986
   -36.1927 -36.1857 -36.1846 -36.1845 -36.1823 -36.1766 -36.1749 -36.1739
   -36.1661 -36.1652 -36.1645 -36.1581 -36.1540 -36.1530 -36.1529 -36.1488
   -36.1367 -36.1346 -36.1337 -36.1290 -36.0079 -36.0039 -36.0015 -36.0014
   -35.9937 -35.9924 -35.9891 -35.9865 -35.9833 -35.9810 -35.9787 -35.9782
   -35.9647 -35.9642 -35.9632 -35.9625 -35.9587 -35.9578 -35.9574 -35.9570
   -35.9413 -35.9400 -35.9396 -35.9394   7.0603   7.3508   7.8139   8.1025
     8.5388   8.7430   8.8264  10.8432  11.4790  11.5196  11.5424  11.6667
    11.8337  11.9171  12.0368  12.0892  12.1862  12.3970  12.6164  12.6242
    12.8191  12.9541  13.0098  13.0485  13.0976  13.1354  13.2197  13.2323
    13.2769  13.4387  13.4899  13.5413  13.5767  13.5967  13.6752  13.6928
    13.7258  13.7801  13.7842  13.8859  13.9090  13.9545  14.0558  14.1403
    14.1775  14.1942  14.1952  14.2490  14.2725  14.3168  14.3219  14.3379
    14.3606  14.3629  14.3884  14.4739  14.4900  14.5155  14.5348  14.5356
    14.5849  14.6187  14.6536  14.6987  14.7717  14.7853  14.8294  14.8845
    15.0097  15.0375  15.0904  15.1095  15.2195  15.3104  15.3683  15.4048
    15.4339  15.4708  15.4865  15.5290  15.5814  15.6319  15.6359  15.7158
    15.7861  15.8569  15.8941  15.9129  15.9220  15.9279  15.9525  15.9673
    15.9978  16.0116  16.0212  16.0505  16.0665  16.0910  16.1065  16.1515
    16.1925  16.2012  16.2203  16.2366  16.2578  16.2882  16.3187  16.3358
    16.3765  16.3823  16.3906  16.4297  16.4590  16.5673  16.5698  16.6107
    16.6247  16.8288  16.8975  16.9230  16.9436  16.9921  17.0239  17.0509
    17.0806  17.1102  17.1489  17.1650  17.2129  17.2210  17.2312  17.2744
    17.2999  17.3568  17.4265  17.4349  17.7531  17.7713  17.8991  17.9123
    17.9904  18.1543  18.1655  18.4009  18.4953  18.5221  18.6027  18.7465
    18.8669  19.0565  19.3240  19.3327  19.3848  19.6563  19.8494  20.5489
    20.8981

          k = 0.2000 0.2000 0.2000 ( 16371 PWs)   bands (ev):

   -71.0884 -71.0877 -71.0145 -71.0145 -70.9813 -70.9812 -70.8938 -70.8927
   -70.7633 -70.1178 -70.1172 -70.1158 -70.1158 -70.1133 -70.1132 -70.1115
   -70.1088 -69.9092 -69.9075 -69.9061 -69.9060 -69.9033 -69.9032 -69.9016
   -69.8988 -37.1489 -37.1485 -37.1473 -37.1459 -37.1448 -37.1393 -37.0778
   -37.0776 -37.0771 -37.0762 -37.0762 -37.0759 -37.0666 -37.0662 -37.0658
   -37.0653 -37.0075 -37.0007 -36.9991 -36.9969 -36.9932 -36.9913 -36.8852
   -36.8841 -36.8146 -36.7998 -36.7996 -36.2126 -36.2013 -36.1980 -36.1964
   -36.1952 -36.1946 -36.1824 -36.1805 -36.1803 -36.1776 -36.1754 -36.1742
   -36.1735 -36.1688 -36.1642 -36.1635 -36.1492 -36.1449 -36.1426 -36.1384
   -36.1383 -36.1357 -36.1345 -36.1328 -36.0054 -36.0045 -36.0004 -35.9997
   -35.9965 -35.9958 -35.9931 -35.9915 -35.9896 -35.9869 -35.9857 -35.9839
   -35.9612 -35.9604 -35.9578 -35.9575 -35.9525 -35.9490 -35.9484 -35.9477
   -35.9464 -35.9445 -35.9421 -35.9418   6.7308   7.0731   8.3296   8.6000
     8.6000   8.6282   8.6658  10.8546  11.2566  11.2684  11.3536  11.4868
    11.5885  11.9456  12.3411  12.4532  12.5032  12.5296  12.5667  12.7132
    12.7717  12.8149  12.8372  12.8964  12.9144  13.2015  13.2847  13.3072
    13.3618  13.4517  13.5237  13.5605  13.6066  13.6137  13.6932  13.7184
    13.7353  13.7654  13.9162  13.9994  14.0269  14.0734  14.0750  14.1099
    14.1570  14.2032  14.2214  14.2266  14.2356  14.2364  14.2934  14.3252
    14.3517  14.4159  14.4364  14.4843  14.4965  14.5047  14.5157  14.5202
    14.5377  14.5587  14.5789  14.7278  14.7807  14.8755  14.9106  14.9575
    15.0303  15.0814  15.0906  15.1523  15.2602  15.3013  15.3193  15.4229
    15.4791  15.5351  15.5722  15.5981  15.6091  15.6606  15.7272  15.7311
    15.7631  15.8438  15.8680  15.8853  15.9037  15.9164  15.9510  15.9530
    15.9622  15.9704  15.9805  16.0177  16.0482  16.1512  16.1539  16.2226
    16.2308  16.2522  16.3026  16.3141  16.3391  16.3855  16.3997  16.4228
    16.4501  16.4652  16.4903  16.5078  16.5768  16.5986  16.6325  16.6684
    16.7137  16.7367  16.7525  16.8074  16.8400  16.9024  16.9210  16.9474
    16.9708  17.0087  17.0262  17.0647  17.1148  17.1487  17.1592  17.1929
    17.2216  17.3562  17.3581  17.4454  17.5371  17.5520  17.7534  17.9868
    17.9884  18.0701  18.0766  18.1593  18.2048  18.3226  18.3477  18.5089
    18.7291  18.7570  18.9381  19.2923  19.7191  21.0444  21.1622  21.5127
    21.5673

          k = 0.2000 0.2000 0.4000 ( 16343 PWs)   bands (ev):

   -71.0881 -71.0879 -71.0145 -71.0145 -70.9812 -70.9812 -70.8933 -70.8930
   -70.7633 -70.1174 -70.1163 -70.1160 -70.1145 -70.1144 -70.1127 -70.1119
   -70.1101 -69.9082 -69.9072 -69.9062 -69.9047 -69.9045 -69.9028 -69.9019
   -69.9001 -37.1479 -37.1470 -37.1461 -37.1459 -37.1451 -37.1422 -37.0774
   -37.0771 -37.0766 -37.0762 -37.0760 -37.0758 -37.0666 -37.0660 -37.0660
   -37.0657 -37.0033 -37.0013 -36.9987 -36.9986 -36.9957 -36.9915 -36.8849
   -36.8699 -36.8156 -36.8147 -36.7998 -36.2038 -36.1987 -36.1952 -36.1934
   -36.1906 -36.1871 -36.1853 -36.1795 -36.1782 -36.1755 -36.1752 -36.1744
   -36.1665 -36.1660 -36.1637 -36.1598 -36.1560 -36.1535 -36.1530 -36.1494
   -36.1409 -36.1380 -36.1373 -36.1338 -36.0021 -35.9991 -35.9962 -35.9959
   -35.9929 -35.9920 -35.9885 -35.9866 -35.9834 -35.9812 -35.9792 -35.9788
   -35.9642 -35.9640 -35.9638 -35.9631 -35.9596 -35.9584 -35.9569 -35.9563
   -35.9464 -35.9454 -35.9452 -35.9447   7.2200   7.4977   7.9414   8.1967
     8.5654   8.6950   8.7201  10.8408  11.1673  11.3064  11.3503  11.4058
    11.4839  11.9110  12.0018  12.2505  12.3530  12.4253  12.5226  12.6875
    12.7648  12.8400  12.8754  12.9464  13.0157  13.0842  13.0983  13.1047
    13.2062  13.3005  13.5153  13.5876  13.6657  13.7039  13.7598  13.7877
    13.7988  13.8690  13.9149  13.9520  14.0317  14.0753  14.1090  14.1590
    14.1834  14.2124  14.2151  14.2626  14.2707  14.2819  14.3054  14.3239
    14.3510  14.3843  14.3926  14.4273  14.4410  14.4633  14.5158  14.5577
    14.5878  14.6128  14.7651  14.7998  14.8126  14.8593  14.8793  14.9320
    14.9380  14.9796  15.0508  15.0899  15.2005  15.2594  15.3418  15.4348
    15.4972  15.5180  15.5314  15.5647  15.5933  15.6179  15.6414  15.7542
    15.7745  15.8558  15.8623  15.8763  15.8967  15.9330  15.9677  16.0034
    16.0288  16.0403  16.0512  16.0662  16.0795  16.0869  16.1217  16.1327
    16.1565  16.1780  16.1935  16.2321  16.2682  16.2792  16.3026  16.3148
    16.3380  16.3708  16.4259  16.4672  16.5174  16.5579  16.6039  16.6353
    16.7418  16.8418  16.8596  16.8880  16.8899  16.9124  16.9381  16.9721
    16.9822  16.9953  17.0239  17.0393  17.0559  17.0967  17.1676  17.1958
    17.2129  17.2585  17.3258  17.3329  17.4508  17.8256  18.0553  18.1922
    18.3422  18.4128  18.5268  18.5397  18.6014  18.7951  18.8544  18.9564
    19.0243  19.0925  19.3820  19.5577  19.6812  20.2896  20.5862  20.8011
    21.1285

          k = 0.2000 0.4000 0.4000 ( 16311 PWs)   bands (ev):

   -71.0880 -71.0879 -71.0144 -71.0144 -70.9812 -70.9812 -70.8932 -70.8930
   -70.7633 -70.1165 -70.1153 -70.1152 -70.1146 -70.1139 -70.1132 -70.1129
   -70.1114 -69.9071 -69.9059 -69.9057 -69.9048 -69.9042 -69.9032 -69.9029
   -69.9014 -37.1481 -37.1477 -37.1451 -37.1447 -37.1447 -37.1433 -37.0770
   -37.0768 -37.0768 -37.0764 -37.0762 -37.0761 -37.0660 -37.0659 -37.0658
   -37.0657 -37.0023 -37.0014 -36.9996 -36.9980 -36.9961 -36.9915 -36.8722
[...]
    19.1014  19.1679  19.1679  19.2092  19.2319  19.2700  19.2932  19.3025
    19.3653  19.3857  19.4228  19.4500  19.4569  19.4922  19.4999  19.4999
    19.5074  19.5515  19.5773  19.5848  19.5848  19.5949  19.6195  19.6214
    19.6430  19.6699  19.7015  19.7015  19.7149  19.7297  19.8358  19.8358
    19.8840  19.8840  19.9785  19.9997  20.0833  20.0851  20.1171  20.1171
    20.1827  20.4083  20.4083  21.7124  22.0775  22.3931  22.3931  22.9592
    22.9592

          k = 0.2016 0.0000 0.2017 ( 15989 PWs)   bands (ev):

   -67.8453 -67.8330 -67.8288 -67.8261 -67.8242 -67.8225 -67.8207 -67.8171
   -67.6830 -67.6776 -67.6545 -67.6525 -67.6492 -67.6489 -67.6460 -67.6447
   -67.6435 -67.6405 -67.6378 -67.6332 -67.5182 -67.5178 -67.4192 -67.4162
   -67.4135 -34.0842 -34.0820 -34.0707 -34.0599 -34.0569 -34.0522 -34.0518
   -34.0345 -34.0261 -33.9921 -33.9918 -33.9903 -33.9875 -33.9742 -33.9721
   -33.9720 -33.9483 -33.9353 -33.9296 -33.9245 -33.9193 -33.9107 -33.9067
   -33.9044 -33.9036 -33.8958 -33.8925 -33.8905 -33.8787 -33.8675 -33.8648
   -33.8575 -33.8470 -33.8326 -33.8223 -33.8133 -33.8105 -33.8075 -33.8042
   -33.7918 -33.7717 -33.7648 -33.7599 -33.7502 -33.7381 -33.7346 -33.7304
   -33.7266 -33.7185 -33.7175 -33.7089 -33.6999 -33.6934 -33.6888 -33.6858
   -33.6770 -33.6764 -33.6710 -33.6557 -33.6505 -33.5971 -33.5918 -33.5839
   -33.5805 -33.5544 -33.5418 -33.5298 -33.5032 -33.5020 -33.4911 -33.4664
   -33.4642 -33.4633 -33.4166 -33.4150   6.9031   7.2976   8.6628   8.9745
     9.0184   9.2236   9.3627  11.5778  11.9784  12.0319  12.1372  12.3038
    12.3982  12.8017  13.1148  13.2441  13.6082  13.7074  13.9384  14.0061
    14.0535  14.1302  14.1820  14.2016  14.2486  14.3457  14.3512  14.3944
    14.4917  14.5675  14.6641  14.9247  15.0146  15.0309  15.1415  15.1878
    15.2156  15.2799  15.3435  15.4697  15.5477  15.5630  15.7005  15.7525
    15.8514  15.8854  16.0411  16.0579  16.1306  16.1449  16.1600  16.1659
    16.2255  16.2364  16.2444  16.2795  16.2867  16.3137  16.3396  16.3971
    16.4135  16.4868  16.5199  16.5199  16.6129  16.6201  16.7564  16.7831
    16.8356  16.8618  16.9105  16.9674  17.1205  17.1919  17.2307  17.3200
    17.3529  17.3531  17.4037  17.4256  17.4419  17.4662  17.4824  17.5225
    17.7282  17.7452  17.8901  18.0252  18.1242  18.1285  18.2311  18.2448
    18.2558  18.3072  18.3664  18.3845  18.4068  18.4743  18.5893  18.6299
    18.7294  18.7975  18.8088  18.9192  18.9339  18.9755  18.9891  19.1078
    19.1304  19.1494  19.2478  19.2754  19.3547  19.3559  19.3661  19.3847
    19.4037  19.4073  19.4083  19.4366  19.4393  19.4636  19.5025  19.5134
    19.5229  19.5432  19.5499  19.5650  19.5934  19.6051  19.6134  19.6413
    19.6630  19.7175  19.7245  19.7565  19.8081  19.8259  19.8562  19.9382
    19.9441  20.0003  20.0094  20.0829  20.1244  20.1450  20.2908  20.3062
    20.3494  20.4052  20.4499  21.7477  22.0191  22.0580  22.4929  22.5200
    23.0056

          k = 0.2016 0.0000 0.4034 ( 15959 PWs)   bands (ev):

   -67.8405 -67.8341 -67.8304 -67.8268 -67.8243 -67.8223 -67.8208 -67.8187
   -67.6791 -67.6760 -67.6613 -67.6528 -67.6497 -67.6472 -67.6468 -67.6451
   -67.6442 -67.6422 -67.6350 -67.6312 -67.5181 -67.5178 -67.4174 -67.4161
   -67.4152 -34.0840 -34.0632 -34.0625 -34.0497 -34.0427 -34.0413 -34.0384
   -34.0373 -34.0109 -34.0077 -34.0073 -33.9942 -33.9881 -33.9742 -33.9722
   -33.9653 -33.9643 -33.9509 -33.9426 -33.9319 -33.9237 -33.9113 -33.9093
   -33.9068 -33.9049 -33.8989 -33.8845 -33.8770 -33.8701 -33.8696 -33.8653
   -33.8444 -33.8363 -33.8341 -33.8326 -33.8256 -33.8031 -33.8026 -33.8009
   -33.7994 -33.7962 -33.7885 -33.7566 -33.7556 -33.7504 -33.7402 -33.7311
   -33.7242 -33.7152 -33.7075 -33.7032 -33.6984 -33.6906 -33.6890 -33.6870
   -33.6809 -33.6736 -33.6591 -33.6578 -33.6479 -33.5992 -33.5872 -33.5858
   -33.5797 -33.5453 -33.5432 -33.5198 -33.5037 -33.5029 -33.5000 -33.4672
   -33.4645 -33.4644 -33.4191 -33.4150   7.4154   7.7399   8.1906   8.5125
     8.9704   9.1925   9.2867  11.4766  12.2168  12.3293  12.3434  12.4023
    12.4862  12.6761  12.7716  13.0310  13.1581  13.1822  13.4862  13.9732
    14.0181  14.1035  14.1886  14.2274  14.2301  14.2781  14.3112  14.3325
    14.4348  14.7954  14.9544  15.0489  15.1698  15.1818  15.2188  15.2724
    15.3717  15.4386  15.5103  15.5226  15.6403  15.6747  15.7759  15.7974
    15.8139  15.8905  15.9417  16.0412  16.0571  16.0847  16.1323  16.1517
    16.2176  16.2194  16.2287  16.2777  16.3121  16.3553  16.3773  16.3979
    16.4675  16.4682  16.4928  16.6021  16.6157  16.6338  16.7024  16.7256
    16.8573  16.8997  16.9690  16.9759  17.0259  17.0772  17.1276  17.1936
    17.2150  17.2825  17.2897  17.3035  17.3935  17.4102  17.4802  17.5654
    17.5964  17.7024  17.7776  17.8363  17.8927  17.9136  17.9226  17.9849
    18.1430  18.1785  18.2295  18.3079  18.5308  18.7632  18.8529  18.8759
    18.8869  18.8933  18.9220  18.9493  19.0111  19.0479  19.0969  19.1560
    19.1958  19.2389  19.2527  19.2919  19.2931  19.3212  19.3494  19.3584
    19.3785  19.3995  19.4238  19.4347  19.4614  19.4818  19.5053  19.5154
    19.5251  19.5364  19.5414  19.5808  19.5985  19.6127  19.6251  19.6432
    19.6969  19.7624  19.8208  19.8309  19.9410  20.0534  20.0734  20.0795
    20.1095  20.2292  20.3037  20.3588  20.4130  20.5249  20.5593  20.5783
    20.8469  20.8714  21.0888  21.2202  21.2966  21.4536  21.6807  21.9069
    22.2618

          k = 0.2016 0.2017 0.2017 ( 15972 PWs)   bands (ev):

   -67.8435 -67.8321 -67.8287 -67.8275 -67.8239 -67.8232 -67.8214 -67.8177
   -67.6813 -67.6768 -67.6555 -67.6517 -67.6508 -67.6498 -67.6467 -67.6451
   -67.6444 -67.6412 -67.6356 -67.6319 -67.5181 -67.5177 -67.4187 -67.4162
   -67.4140 -34.0750 -34.0730 -34.0720 -34.0556 -34.0541 -34.0479 -34.0473
   -34.0286 -34.0265 -33.9988 -33.9950 -33.9938 -33.9865 -33.9740 -33.9739
   -33.9696 -33.9440 -33.9366 -33.9321 -33.9293 -33.9278 -33.9269 -33.9074
   -33.9055 -33.8979 -33.8963 -33.8922 -33.8841 -33.8703 -33.8649 -33.8607
   -33.8585 -33.8493 -33.8338 -33.8217 -33.8125 -33.8107 -33.8075 -33.8060
   -33.7970 -33.7709 -33.7688 -33.7643 -33.7518 -33.7481 -33.7441 -33.7430
   -33.7247 -33.7193 -33.7148 -33.7057 -33.6951 -33.6935 -33.6843 -33.6842
   -33.6786 -33.6742 -33.6667 -33.6540 -33.6525 -33.5938 -33.5919 -33.5838
   -33.5816 -33.5489 -33.5420 -33.5271 -33.5058 -33.4991 -33.4938 -33.4664
   -33.4660 -33.4625 -33.4195 -33.4134   7.0783   7.4587   8.7502   9.0376
     9.0388   9.0634   9.1064  11.4451  11.9197  11.9289  12.0827  12.2139
    12.3630  12.7624  13.2561  13.3661  13.4347  13.4536  13.4979  13.7116
    13.9535  14.0859  14.1651  14.2633  14.3483  14.4293  14.5782  14.7140
    14.7288  14.7503  14.7964  14.8128  14.8561  14.9625  15.0352  15.2183
    15.3673  15.3897  15.4756  15.5355  15.5821  15.7487  15.8266  15.8574
    15.9061  15.9386  16.0042  16.0256  16.0675  16.0856  16.0951  16.1458
    16.1554  16.2414  16.2653  16.2965  16.3193  16.3654  16.3935  16.4127
    16.4443  16.4803  16.4880  16.5195  16.5929  16.6606  16.6821  16.7802
    16.8096  16.8413  16.8763  16.9251  17.0844  17.1191  17.1321  17.2496
    17.2561  17.3158  17.3259  17.3590  17.3968  17.3981  17.4594  17.4632
    17.7594  17.7629  17.8424  18.0011  18.0455  18.0891  18.1387  18.1435
    18.1790  18.2183  18.2191  18.2334  18.6153  18.6240  18.7527  18.7941
    18.8468  18.8929  18.8989  18.9378  18.9400  19.0030  19.0281  19.0662
    19.0679  19.1087  19.2006  19.3024  19.3237  19.3303  19.3317  19.3404
    19.3639  19.3761  19.3963  19.4254  19.4559  19.4605  19.4756  19.4797
    19.5009  19.5314  19.5400  19.5651  19.5899  19.5964  19.6011  19.6142
    19.6547  19.6610  19.7481  19.8217  19.8806  19.8964  19.9477  20.0318
    20.0431  20.1125  20.1301  20.1743  20.2774  20.3393  20.3560  20.5493
    20.6416  20.7625  20.8465  21.2414  21.5860  22.4194  22.6109  22.6679
    23.0195

          k = 0.2016 0.2017 0.4034 ( 15936 PWs)   bands (ev):

   -67.8390 -67.8331 -67.8296 -67.8261 -67.8259 -67.8234 -67.8216 -67.8194
   -67.6779 -67.6754 -67.6601 -67.6521 -67.6497 -67.6494 -67.6469 -67.6467
   -67.6453 -67.6431 -67.6333 -67.6304 -67.5180 -67.5177 -67.4172 -67.4161
   -67.4154 -34.0749 -34.0570 -34.0542 -34.0507 -34.0451 -34.0362 -34.0328
   -34.0324 -34.0134 -34.0106 -34.0073 -33.9992 -33.9871 -33.9738 -33.9717
   -33.9653 -33.9629 -33.9543 -33.9397 -33.9389 -33.9296 -33.9282 -33.9197
   -33.9101 -33.8924 -33.8914 -33.8796 -33.8726 -33.8637 -33.8594 -33.8560
   -33.8466 -33.8374 -33.8365 -33.8314 -33.8282 -33.8071 -33.8054 -33.8030
   -33.8018 -33.7953 -33.7895 -33.7630 -33.7580 -33.7560 -33.7523 -33.7436
   -33.7349 -33.7123 -33.7047 -33.7016 -33.6955 -33.6909 -33.6866 -33.6858
   -33.6778 -33.6722 -33.6575 -33.6573 -33.6498 -33.5947 -33.5864 -33.5854
   -33.5809 -33.5429 -33.5424 -33.5168 -33.5080 -33.5027 -33.4965 -33.4665
   -33.4661 -33.4636 -33.4226 -33.4124   7.5772   7.8872   8.3193   8.6037
     8.9867   9.1227   9.1589  11.4465  11.7605  11.9346  11.9984  12.0813
    12.1982  12.6829  12.8168  13.1691  13.3361  13.4129  13.5760  13.8469
    13.9532  14.0814  14.1204  14.1554  14.3129  14.3457  14.3506  14.4273
    14.4970  14.9858  15.0615  15.1494  15.2044  15.2507  15.2939  15.3503
    15.3928  15.5845  15.6344  15.6552  15.6998  15.7275  15.8026  15.8740
    15.8816  15.9228  15.9811  16.0216  16.0997  16.1127  16.1267  16.1722
    16.1884  16.2017  16.2432  16.2508  16.3122  16.3594  16.3782  16.3989
    16.4298  16.4475  16.5565  16.5782  16.6069  16.6440  16.6569  16.7296
    16.7843  16.8505  16.8807  16.9258  16.9475  16.9976  17.0073  17.1945
    17.2193  17.2852  17.2964  17.3382  17.3682  17.4135  17.4614  17.5185
    17.5614  17.7010  17.7390  17.7793  17.7980  17.8055  17.8591  17.8935
    18.0188  18.0674  18.1281  18.1954  18.7633  18.8269  18.9015  18.9199
    18.9728  18.9792  18.9982  19.0374  19.0819  19.0879  19.1322  19.1557
    19.2109  19.2315  19.2354  19.2833  19.2863  19.3040  19.3122  19.3297
    19.3383  19.3576  19.3688  19.3943  19.4171  19.4362  19.4472  19.4644
    19.4732  19.4887  19.5162  19.5282  19.5427  19.5778  19.5910  19.6027
    19.6245  19.6404  19.6848  19.7358  19.8695  20.0031  20.1488  20.2247
    20.3573  20.4573  20.5261  20.5538  20.5960  20.6927  20.7785  20.8181
    20.9223  20.9756  21.2068  21.3606  21.4887  21.8222  22.2154  22.3737
    22.5382

          k = 0.2016 0.4034 0.4034 ( 15939 PWs)   bands (ev):

   -67.8353 -67.8316 -67.8288 -67.8273 -67.8261 -67.8248 -67.8231 -67.8214
   -67.6759 -67.6743 -67.6577 -67.6528 -67.6506 -67.6502 -67.6486 -67.6476
   -67.6465 -67.6452 -67.6314 -67.6293 -67.5178 -67.5177 -67.4166 -67.4161
   -67.4159 -34.0522 -34.0516 -34.0488 -34.0456 -34.0370 -34.0312 -34.0256
   -34.0178 -34.0165 -34.0159 -34.0094 -34.0082 -33.9809 -33.9809 -33.9682
   -33.9677 -33.9668 -33.9631 -33.9479 -33.9449 -33.9397 -33.9359 -33.9344
   -33.9197 -33.8775 -33.8760 -33.8686 -33.8565 -33.8533 -33.8496 -33.8465
   -33.8415 -33.8408 -33.8383 -33.8331 -33.8188 -33.8183 -33.8176 -33.8112
   -33.8039 -33.8015 -33.7951 -33.7740 -33.7674 -33.7627 -33.7584 -33.7582
   -33.7515 -33.7126 -33.7090 -33.6954 -33.6952 -33.6884 -33.6848 -33.6834
   -33.6816 -33.6613 -33.6571 -33.6569 -33.6505 -33.5878 -33.5870 -33.5831
   -33.5825 -33.5412 -33.5396 -33.5128 -33.5097 -33.5041 -33.4929 -33.4691
   -33.4645 -33.4631 -33.4264 -33.4102   8.0274   8.2736   8.6329   8.6495
     8.7367   8.8756   8.9689  11.2226  11.4684  11.6396  11.7015  11.7801
    12.1625  12.1823  12.2799  13.3945  13.5471  13.7228  13.7796  13.8726
    13.9132  14.0876  14.1648  14.1909  14.1969  14.2239  14.2816  14.3142
    14.3419  15.2206  15.2914  15.3442  15.3875  15.4444  15.4802  15.5383
    15.6068  15.6407  15.7325  15.7841  15.8891  15.9336  15.9378  15.9704
    15.9929  16.0140  16.0443  16.0795  16.1122  16.1300  16.1492  16.1671
    16.1777  16.1912  16.2332  16.2584  16.2585  16.3107  16.3469  16.4094
    16.4215  16.4243  16.4992  16.5182  16.5641  16.6405  16.6762  16.6786
    16.6954  16.7322  16.7896  16.7998  16.8083  16.8204  16.8533  17.2697
    17.2871  17.3577  17.3816  17.3975  17.4174  17.4356  17.4498  17.4826
    17.4875  17.5455  17.5810  17.6079  17.6432  17.6547  17.7190  17.7396
    17.7701  17.8158  17.8695  17.9362  18.7726  18.9643  18.9758  19.0148
    19.0731  19.0778  19.1441  19.1817  19.1825  19.2015  19.2026  19.2040
    19.2389  19.2603  19.2740  19.2915  19.2917  19.3178  19.3291  19.3318
    19.3367  19.3424  19.3506  19.3879  19.4077  19.4102  19.4109  19.4179
    19.4310  19.4371  19.4665  19.4735  19.4864  19.4958  19.5201  19.5529
    19.5610  19.6129  19.6554  19.7073  19.7125  19.8122  19.9204  20.0785
    20.2962  20.7758  21.0395  21.1700  21.2054  21.2590  21.2711  21.3029
    21.4163  21.5610  21.7661  21.8415  21.9217  22.1505  22.4070  22.4893
    22.8069

     the Fermi energy is    18.0265 ev

!    total energy              =   -8312.15532541 Ry
     estimated scf accuracy    <          1.0E-10 Ry
     smearing contrib. (-TS)   =       0.00109493 Ry
     internal energy E=F+TS    =   -8312.15642034 Ry

     The total energy is F=E-TS. E is the sum of the following terms:
     one-electron contribution =   -3188.00561388 Ry
     hartree contribution      =    1877.99010647 Ry
     xc contribution           =    -915.89164081 Ry
     ewald contribution        =   -4182.50047241 Ry
     one-center paw contrib.   =   -1903.74879971 Ry

     total magnetization       =    44.50 Bohr mag/cell
     absolute magnetization    =    48.15 Bohr mag/cell

     convergence has been achieved in  52 iterations

     negative rho (up, down):  0.000E+00 1.461E-03

     Forces acting on atoms (cartesian axes, Ry/au):

     atom    1 type  2   force =    -0.00002746    0.00000000   -0.00000000
     atom    2 type  2   force =     0.00003609    0.00000000   -0.00000000
     atom    3 type  2   force =     0.00000000    0.00000000    0.00000000
     atom    4 type  2   force =     0.00000000    0.00000000    0.00000000
     atom    5 type  2   force =    -0.00006835   -0.00007895   -0.00007895
     atom    6 type  2   force =    -0.00006835    0.00007895    0.00007895
     atom    7 type  2   force =     0.00006504   -0.00008122    0.00008122
     atom    8 type  2   force =     0.00006504    0.00008122   -0.00008122
     atom    9 type  2   force =     0.00006504    0.00008122    0.00008122
     atom   10 type  2   force =     0.00006504   -0.00008122   -0.00008122
     atom   11 type  2   force =    -0.00006835    0.00007895   -0.00007895
     atom   12 type  2   force =    -0.00006835   -0.00007895    0.00007895
     atom   13 type  1   force =     0.00000000    0.00000000    0.00000000
     atom   14 type  1   force =     0.00000000    0.00000000    0.00000000
     atom   15 type  1   force =     0.00014695    0.00000000    0.00000000
     atom   16 type  1   force =     0.00014695    0.00000000    0.00000000
     atom   17 type  2   force =     0.00002746    0.00000000   -0.00000000
     atom   18 type  2   force =    -0.00003609   -0.00000000   -0.00000000
     atom   19 type  2   force =     0.00000000    0.00000000    0.00000000
     atom   20 type  2   force =     0.00000000    0.00000000    0.00000000
     atom   21 type  2   force =    -0.00006504   -0.00008122   -0.00008122
     atom   22 type  2   force =    -0.00006504    0.00008122    0.00008122
     atom   23 type  2   force =     0.00006835   -0.00007895    0.00007895
     atom   24 type  2   force =     0.00006835    0.00007895   -0.00007895
     atom   25 type  2   force =     0.00006835    0.00007895    0.00007895
     atom   26 type  2   force =     0.00006835   -0.00007895   -0.00007895
     atom   27 type  2   force =    -0.00006504    0.00008122   -0.00008122
     atom   28 type  2   force =    -0.00006504   -0.00008122    0.00008122
     atom   29 type  2   force =     0.00000000    0.00000000    0.00000000
     atom   30 type  1   force =     0.00000000    0.00000000    0.00000000
     atom   31 type  1   force =    -0.00014695    0.00000000    0.00000000
     atom   32 type  1   force =    -0.00014695    0.00000000    0.00000000

     Total force =     0.000606     Total SCF correction =     0.000045


     Computing stress (Cartesian axis) and pressure


     negative rho (up, down):  0.000E+00 1.461E-03
          total   stress  (Ry/bohr**3)                   (kbar)     P=       -4.46
  -0.00002860   0.00000000   0.00000000           -4.21        0.00        0.00
   0.00000000  -0.00003115   0.00000000            0.00       -4.58        0.00
   0.00000000   0.00000000  -0.00003115            0.00        0.00       -4.58


     Writing all to output data dir ./file.save/
 
     init_run     :    104.90s CPU    154.24s WALL (       2 calls)
     electrons    :  44321.60s CPU  44560.60s WALL (      10 calls)
     update_pot   :     80.00s CPU     80.16s WALL (       8 calls)
     forces       :    213.33s CPU    241.46s WALL (      10 calls)
     stress       :   2237.93s CPU   2164.52s WALL (      10 calls)

     Called by init_run:
     wfcinit      :     86.20s CPU    113.85s WALL (       2 calls)
                                      113.85s GPU  (       2 calls)
     potinit      :     11.33s CPU     26.71s WALL (       2 calls)
     hinit0       :      6.11s CPU      6.13s WALL (       2 calls)

     Called by electrons:
     c_bands      :  37900.19s CPU  38098.65s WALL (     401 calls)
     sum_band     :   4835.21s CPU   4863.39s WALL (     401 calls)
     v_of_rho     :     48.85s CPU     64.40s WALL (     411 calls)
     newd         :    108.34s CPU    121.68s WALL (     411 calls)
                                      108.00s GPU  (     403 calls)
     PAW_pot      :   1456.90s CPU   1460.48s WALL (     419 calls)
     mix_rho      :     35.37s CPU     35.11s WALL (     401 calls)

     Called by c_bands:
     init_us_2    :    123.65s CPU    134.30s WALL (   29952 calls)
     init_us_2:cp :      4.25s CPU      5.96s WALL (     288 calls)
     init_us_2:gp :     87.85s CPU     96.68s WALL (   29664 calls)
     cegterg      :  36804.18s CPU  36958.76s WALL (   14436 calls)

     Called by *egterg:
     cdiaghg      :   2014.66s CPU   2055.84s WALL (   52822 calls)
                                     2041.99s GPU  (   52822 calls)
     h_psi        :  16068.02s CPU  16142.97s WALL (   53182 calls)
                                    16061.39s GPU  (   53182 calls)
     s_psi        :    193.52s CPU   4110.71s WALL (   53182 calls)
                                     4091.12s GPU  (   53182 calls)
     g_psi        :      0.19s CPU    198.79s WALL (   38674 calls)
                                       11.62s GPU  (   38674 calls)

     Called by h_psi:
     h_psi:calbec :   4365.05s CPU   4378.34s WALL (   53182 calls)
                                     4370.46s GPU  (   53182 calls)
     vloc_psi     :   7538.36s CPU   7605.05s WALL (   53182 calls)
                                     7518.06s GPU  (   53182 calls)
     add_vuspsi   :    124.72s CPU   4055.45s WALL (   53182 calls)
                                     4043.37s GPU  (   53182 calls)

     General routines
     calbec       :   6481.94s CPU   6465.25s WALL (   69706 calls)
     fft          :     47.79s CPU     65.13s WALL (   10663 calls)
                                       34.54s GPU  (    6996 calls)
     ffts         :      3.10s CPU      3.18s WALL (    1624 calls)
     fftw         :   7126.76s CPU   9255.54s WALL ( 1410922 calls)
                                     6108.13s GPU  ( 1410922 calls)
     interpolate  :      9.65s CPU      9.75s WALL (     822 calls)
 
     Parallel routines
 
     PWSCF        :     13h 4m CPU     13h 9m WALL

 
   This run was terminated on:  11:13:37  28Nov2022            

=------------------------------------------------------------------------------=
   JOB DONE.
=------------------------------------------------------------------------------=
