
     Program PWSCF v.6.5 starts on  4Dec2022 at 21:38: 1 

     This program is part of the open-source Quantum ESPRESSO suite
     for quantum simulation of materials; please cite
         "P. Giannozzi et al., J. Phys.:Condens. Matter 21 395502 (2009);
         "P. Giannozzi et al., J. Phys.:Condens. Matter 29 465901 (2017);
          URL http://www.quantum-espresso.org", 
     in publications or presentations arising from this work. More details at
     http://www.quantum-espresso.org/quote

     Parallel version (MPI), running on    20 processors

     MPI processes distributed on     1 nodes
     R & G space division:  proc/nbgrp/npool/nimage =      20
     Reading input from 32_8Si_3.in

     Current dimensions of program PWSCF are:
     Max number of different atomic species (ntypx) = 10
     Max number of k-points (npk) =  40000
     Max angular momentum in pseudopotentials (lmaxx) =  3

     IMPORTANT: XC functional enforced from input :
     Exchange-correlation= PBE
                           (   1   4   3   4   0   0   0)
     Any further DFT definition will be discarded
     Please, verify this is what you really want

               file Fe.pbe-spn-kjpaw_psl.0.2.1.UPF: wavefunction(s)  3D renormalized

     Subspace diagonalization in iterative solution of the eigenvalue problem:
     one sub-group per band group will be used
     scalapack distributed-memory algorithm (size of sub-group:  4*  4 procs)

     Message from routine setup:
     using ibrav=0 with symmetry is DISCOURAGED, use correct ibrav instead
 
     Parallelization info
     --------------------
     sticks:   dense  smooth     PW     G-vecs:    dense   smooth      PW
     Min         392     194     54                18490     6520     940
     Max         394     195     55                18491     6525     942
     Sum        7847    3895   1083               369801   130447   18805
 


     bravais-lattice index     =            0
     lattice parameter (alat)  =      10.6864  a.u.
     unit-cell volume          =    2440.7564 (a.u.)^3
     number of atoms/cell      =           32
     number of atomic types    =            2
     number of electrons       =       416.00
     number of Kohn-Sham states=          250
     kinetic-energy cutoff     =      54.0000  Ry
     charge density cutoff     =     432.0000  Ry
     convergence threshold     =      1.0E-08
     mixing beta               =       0.1000
     number of iterations used =            8  plain     mixing
     Exchange-correlation= PBE
                           (   1   4   3   4   0   0   0)
     nstep                     =           50


     celldm(1)=  10.686401  celldm(2)=   0.000000  celldm(3)=   0.000000
     celldm(4)=   0.000000  celldm(5)=   0.000000  celldm(6)=   0.000000

     crystal axes: (cart. coord. in units of alat)
               a(1) = (   2.000000   0.000000   0.000000 )  
               a(2) = (   0.000000   1.000000   0.000000 )  
               a(3) = (   0.000000   0.000000   1.000000 )  

     reciprocal axes: (cart. coord. in units 2 pi/alat)
               b(1) = (  0.500000  0.000000  0.000000 )  
               b(2) = (  0.000000  1.000000  0.000000 )  
               b(3) = (  0.000000  0.000000  1.000000 )  


     PseudoPot. # 1 for Si read from file:
     ./Si.pbe-n-rrkjus_psl.1.0.0.UPF
     MD5 check sum: 0b0bb1205258b0d07b9f9672cf965d36
     Pseudo is Ultrasoft + core correction, Zval =  4.0
     Generated using "atomic" code by A. Dal Corso v.5.1
     Using radial grid of 1141 points,  6 beta functions with: 
                l(1) =   0
                l(2) =   0
                l(3) =   1
                l(4) =   1
                l(5) =   2
                l(6) =   2
     Q(r) pseudized with 0 coefficients 


     PseudoPot. # 2 for Fe read from file:
     ./Fe.pbe-spn-kjpaw_psl.0.2.1.UPF
     MD5 check sum: e86618425769142926afa95317d90200
     Pseudo is Projector augmented-wave + core cor, Zval = 16.0
     Generated using "atomic" code by A. Dal Corso v.5.0.99 svn rev. 10869
     Shape of augmentation charge: PSQ
     Using radial grid of 1191 points,  6 beta functions with: 
                l(1) =   0
                l(2) =   0
                l(3) =   1
                l(4) =   1
                l(5) =   2
                l(6) =   2
     Q(r) pseudized with 0 coefficients 


     atomic species   valence    mass     pseudopotential
        Si             4.00    28.08500     Si( 1.00)
        Fe            16.00    55.84500     Fe( 1.00)

     Starting magnetic structure 
     atomic species   magnetization
        Si           1.000
        Fe           1.000

      8 Sym. Ops. (no inversion) found



   Cartesian axes

     site n.     atom                  positions (alat units)
         1           Fe  tau(   1) = (   0.5000000   0.5000000   0.5000000  )
         2           Fe  tau(   2) = (   0.5000000   1.0000000   1.0000000  )
         3           Si  tau(   3) = (   1.0000000   0.5000000   1.0000000  )
         4           Si  tau(   4) = (   1.0000000   1.0000000   0.5000000  )
         5           Fe  tau(   5) = (   0.2500000   0.2500000   0.2500000  )
         6           Fe  tau(   6) = (   0.2500000   0.7500000   0.7500000  )
         7           Si  tau(   7) = (   0.7500000   0.2500000   0.7500000  )
         8           Si  tau(   8) = (   0.7500000   0.7500000   0.2500000  )
         9           Fe  tau(   9) = (   0.7500000   0.7500000   0.7500000  )
        10           Fe  tau(  10) = (   0.7500000   0.2500000   0.2500000  )
        11           Fe  tau(  11) = (   0.2500000   0.7500000   0.2500000  )
        12           Fe  tau(  12) = (   0.2500000   0.2500000   0.7500000  )
        13           Fe  tau(  13) = (   0.0000000   0.0000000   0.0000000  )
        14           Si  tau(  14) = (   0.0000000   0.5000000   0.5000000  )
        15           Fe  tau(  15) = (   0.5000000   0.0000000   0.5000000  )
        16           Fe  tau(  16) = (   0.5000000   0.5000000   0.0000000  )
        17           Fe  tau(  17) = (   1.5000000   0.5000000   0.5000000  )
        18           Fe  tau(  18) = (   1.5000000   1.0000000   1.0000000  )
        19           Fe  tau(  19) = (   2.0000000   0.5000000   1.0000000  )
        20           Fe  tau(  20) = (   2.0000000   1.0000000   0.5000000  )
        21           Si  tau(  21) = (   1.2500000   0.2500000   0.2500000  )
        22           Si  tau(  22) = (   1.2500000   0.7500000   0.7500000  )
        23           Fe  tau(  23) = (   1.7500000   0.2500000   0.7500000  )
        24           Fe  tau(  24) = (   1.7500000   0.7500000   0.2500000  )
        25           Fe  tau(  25) = (   1.7500000   0.7500000   0.7500000  )
        26           Fe  tau(  26) = (   1.7500000   0.2500000   0.2500000  )
        27           Fe  tau(  27) = (   1.2500000   0.7500000   0.2500000  )
        28           Fe  tau(  28) = (   1.2500000   0.2500000   0.7500000  )
        29           Fe  tau(  29) = (   1.0000000   0.0000000   0.0000000  )
        30           Si  tau(  30) = (   1.0000000   0.5000000   0.5000000  )
        31           Fe  tau(  31) = (   1.5000000   0.0000000   0.5000000  )
        32           Fe  tau(  32) = (   1.5000000   0.5000000   0.0000000  )

     number of k points=    18  Marzari-Vanderbilt smearing, width (Ry)=  0.0050
                       cart. coord. in units 2pi/alat
        k(    1) = (   0.0000000   0.0000000   0.0000000), wk =   0.0080000
        k(    2) = (   0.0000000   0.0000000   0.2000000), wk =   0.0320000
        k(    3) = (   0.0000000   0.0000000   0.4000000), wk =   0.0320000
        k(    4) = (   0.0000000   0.2000000   0.2000000), wk =   0.0320000
        k(    5) = (   0.0000000   0.2000000   0.4000000), wk =   0.0640000
        k(    6) = (   0.0000000   0.4000000   0.4000000), wk =   0.0320000
        k(    7) = (   0.1000000   0.0000000   0.0000000), wk =   0.0160000
        k(    8) = (   0.1000000   0.0000000   0.2000000), wk =   0.0640000
        k(    9) = (   0.1000000   0.0000000   0.4000000), wk =   0.0640000
        k(   10) = (   0.1000000   0.2000000   0.2000000), wk =   0.0640000
        k(   11) = (   0.1000000   0.2000000   0.4000000), wk =   0.1280000
        k(   12) = (   0.1000000   0.4000000   0.4000000), wk =   0.0640000
        k(   13) = (   0.2000000   0.0000000   0.0000000), wk =   0.0160000
        k(   14) = (   0.2000000   0.0000000   0.2000000), wk =   0.0640000
        k(   15) = (   0.2000000   0.0000000   0.4000000), wk =   0.0640000
        k(   16) = (   0.2000000   0.2000000   0.2000000), wk =   0.0640000
        k(   17) = (   0.2000000   0.2000000   0.4000000), wk =   0.1280000
        k(   18) = (   0.2000000   0.4000000   0.4000000), wk =   0.0640000

     Dense  grid:   369801 G-vectors     FFT dimensions: ( 144,  72,  72)

     Smooth grid:   130447 G-vectors     FFT dimensions: ( 100,  50,  50)

     Estimated max dynamical RAM per process >     231.60 MB

     Estimated total dynamical RAM >       4.52 GB
     Generating pointlists ...
     new r_m :   0.1786 (alat units)  1.9088 (a.u.) for type    1
     new r_m :   0.1786 (alat units)  1.9088 (a.u.) for type    2

     Check: negative core charge=   -0.000061

     Initial potential from superposition of free atoms

     starting charge  415.98501, renormalised to  416.00000
     Starting wfcs are  344 randomized atomic wfcs
     Checking if some PAW data can be deallocated... 

     total cpu time spent up to now is       23.5 secs

     Self-consistent Calculation

     iteration #  1     ecut=    54.00 Ry     beta= 0.10
     Davidson diagonalization with overlap
     ethr =  1.00E-02,  avg # of iterations =  3.3

     total cpu time spent up to now is       87.7 secs

     total energy              =   -7918.85834751 Ry
     Harris-Foulkes estimate   =   -7872.93279355 Ry
     estimated scf accuracy    <     104.20721399 Ry

     total magnetization       =    84.00 Bohr mag/cell
     absolute magnetization    =   110.07 Bohr mag/cell

     iteration #  2     ecut=    54.00 Ry     beta= 0.10
     Davidson diagonalization with overlap
     ethr =  1.00E-02,  avg # of iterations =  2.2

     total cpu time spent up to now is      130.3 secs

     total energy              =   -7933.02185793 Ry
     Harris-Foulkes estimate   =   -7921.38068998 Ry
     estimated scf accuracy    <      89.82306585 Ry

     total magnetization       =    84.00 Bohr mag/cell
     absolute magnetization    =    97.47 Bohr mag/cell

     iteration #  3     ecut=    54.00 Ry     beta= 0.10
     Davidson diagonalization with overlap
     ethr =  1.00E-02,  avg # of iterations =  1.5

     total cpu time spent up to now is      168.8 secs

     total energy              =   -7967.54779506 Ry
     Harris-Foulkes estimate   =   -7934.16638932 Ry
     estimated scf accuracy    <      73.63134449 Ry

     total magnetization       =    84.00 Bohr mag/cell
     absolute magnetization    =    96.64 Bohr mag/cell

     iteration #  4     ecut=    54.00 Ry     beta= 0.10
     Davidson diagonalization with overlap
     ethr =  1.00E-02,  avg # of iterations =  1.0

     total cpu time spent up to now is      205.5 secs

     total energy              =   -7990.18515862 Ry
     Harris-Foulkes estimate   =   -7968.25212992 Ry
     estimated scf accuracy    <      33.37430722 Ry

     total magnetization       =    84.00 Bohr mag/cell
     absolute magnetization    =    89.87 Bohr mag/cell

     iteration #  5     ecut=    54.00 Ry     beta= 0.10
     Davidson diagonalization with overlap
     ethr =  8.02E-03,  avg # of iterations =  1.9

     total cpu time spent up to now is      247.9 secs

     total energy              =   -7993.22516196 Ry
     Harris-Foulkes estimate   =   -7993.41952200 Ry
     estimated scf accuracy    <      15.35389426 Ry

     total magnetization       =    58.97 Bohr mag/cell
     absolute magnetization    =    68.27 Bohr mag/cell

     iteration #  6     ecut=    54.00 Ry     beta= 0.10
     Davidson diagonalization with overlap
     ethr =  3.69E-03,  avg # of iterations =  1.3

     total cpu time spent up to now is      285.6 secs

     total energy              =   -7993.38501699 Ry
     Harris-Foulkes estimate   =   -7993.62087334 Ry
     estimated scf accuracy    <       2.76225931 Ry

     total magnetization       =    57.73 Bohr mag/cell
     absolute magnetization    =    66.50 Bohr mag/cell

     iteration #  7     ecut=    54.00 Ry     beta= 0.10
     Davidson diagonalization with overlap
     ethr =  6.64E-04,  avg # of iterations =  4.2

     total cpu time spent up to now is      339.7 secs

     total energy              =   -7993.58677606 Ry
     Harris-Foulkes estimate   =   -7993.67536509 Ry
     estimated scf accuracy    <       1.03444325 Ry

     total magnetization       =    53.69 Bohr mag/cell
     absolute magnetization    =    61.50 Bohr mag/cell

     iteration #  8     ecut=    54.00 Ry     beta= 0.10
     Davidson diagonalization with overlap
     ethr =  2.49E-04,  avg # of iterations =  2.0

     total cpu time spent up to now is      380.1 secs

     total energy              =   -7993.65644624 Ry
     Harris-Foulkes estimate   =   -7993.64952273 Ry
     estimated scf accuracy    <       0.31879920 Ry

     total magnetization       =    51.59 Bohr mag/cell
     absolute magnetization    =    59.22 Bohr mag/cell

     iteration #  9     ecut=    54.00 Ry     beta= 0.10
     Davidson diagonalization with overlap
     ethr =  7.66E-05,  avg # of iterations =  3.7

     total cpu time spent up to now is      438.8 secs

     total energy              =   -7993.70011399 Ry
     Harris-Foulkes estimate   =   -7993.72716930 Ry
     estimated scf accuracy    <       0.51548003 Ry

     total magnetization       =    52.22 Bohr mag/cell
     absolute magnetization    =    58.94 Bohr mag/cell

     iteration # 10     ecut=    54.00 Ry     beta= 0.10
     Davidson diagonalization with overlap
     ethr =  7.66E-05,  avg # of iterations =  1.0

     total cpu time spent up to now is      475.4 secs

     total energy              =   -7993.69658117 Ry
     Harris-Foulkes estimate   =   -7993.71679626 Ry
     estimated scf accuracy    <       0.19027425 Ry

     total magnetization       =    51.39 Bohr mag/cell
     absolute magnetization    =    57.84 Bohr mag/cell

     iteration # 11     ecut=    54.00 Ry     beta= 0.10
     Davidson diagonalization with overlap
     ethr =  4.57E-05,  avg # of iterations =  2.8

     total cpu time spent up to now is      525.8 secs

     total energy              =   -7993.74159969 Ry
     Harris-Foulkes estimate   =   -7993.73757498 Ry
     estimated scf accuracy    <       0.16312625 Ry

     total magnetization       =    50.36 Bohr mag/cell
     absolute magnetization    =    56.02 Bohr mag/cell

     iteration # 12     ecut=    54.00 Ry     beta= 0.10
     Davidson diagonalization with overlap
     ethr =  3.92E-05,  avg # of iterations =  2.6

     total cpu time spent up to now is      577.4 secs

     total energy              =   -7993.77111653 Ry
     Harris-Foulkes estimate   =   -7993.78709185 Ry
     estimated scf accuracy    <       0.32094267 Ry

     total magnetization       =    51.80 Bohr mag/cell
     absolute magnetization    =    56.95 Bohr mag/cell

     iteration # 13     ecut=    54.00 Ry     beta= 0.10
     Davidson diagonalization with overlap
     ethr =  3.92E-05,  avg # of iterations =  1.2

     total cpu time spent up to now is      614.6 secs

     total energy              =   -7993.79150447 Ry
     Harris-Foulkes estimate   =   -7993.78391528 Ry
     estimated scf accuracy    <       0.01550729 Ry

     total magnetization       =    51.25 Bohr mag/cell
     absolute magnetization    =    56.05 Bohr mag/cell

     iteration # 14     ecut=    54.00 Ry     beta= 0.10
     Davidson diagonalization with overlap
     ethr =  3.73E-06,  avg # of iterations =  4.2

     total cpu time spent up to now is      675.7 secs

     total energy              =   -7993.79739033 Ry
     Harris-Foulkes estimate   =   -7993.79497109 Ry
     estimated scf accuracy    <       0.01261625 Ry

     total magnetization       =    51.08 Bohr mag/cell
     absolute magnetization    =    55.41 Bohr mag/cell

     iteration # 15     ecut=    54.00 Ry     beta= 0.10
     Davidson diagonalization with overlap
     ethr =  3.03E-06,  avg # of iterations =  1.0

     total cpu time spent up to now is      712.3 secs

     total energy              =   -7993.80259603 Ry
     Harris-Foulkes estimate   =   -7993.79817567 Ry
     estimated scf accuracy    <       0.00557283 Ry

     total magnetization       =    51.22 Bohr mag/cell
     absolute magnetization    =    55.54 Bohr mag/cell

     iteration # 16     ecut=    54.00 Ry     beta= 0.10
     Davidson diagonalization with overlap
     ethr =  1.34E-06,  avg # of iterations =  1.8

     total cpu time spent up to now is      754.1 secs

     total energy              =   -7993.80553896 Ry
     Harris-Foulkes estimate   =   -7993.80310223 Ry
     estimated scf accuracy    <       0.00274157 Ry

     total magnetization       =    51.25 Bohr mag/cell
     absolute magnetization    =    55.34 Bohr mag/cell

     iteration # 17     ecut=    54.00 Ry     beta= 0.10
     Davidson diagonalization with overlap
     ethr =  6.59E-07,  avg # of iterations =  2.3

     total cpu time spent up to now is      797.6 secs

     total energy              =   -7993.80745772 Ry
     Harris-Foulkes estimate   =   -7993.80578323 Ry
     estimated scf accuracy    <       0.00170789 Ry

     total magnetization       =    51.21 Bohr mag/cell
     absolute magnetization    =    55.16 Bohr mag/cell

     iteration # 18     ecut=    54.00 Ry     beta= 0.10
     Davidson diagonalization with overlap
     ethr =  4.11E-07,  avg # of iterations =  2.2

     total cpu time spent up to now is      847.3 secs

     total energy              =   -7993.80891086 Ry
     Harris-Foulkes estimate   =   -7993.80783600 Ry
     estimated scf accuracy    <       0.00093434 Ry

     total magnetization       =    51.23 Bohr mag/cell
     absolute magnetization    =    54.94 Bohr mag/cell

     iteration # 19     ecut=    54.00 Ry     beta= 0.10
     Davidson diagonalization with overlap
     ethr =  2.25E-07,  avg # of iterations =  1.4

     total cpu time spent up to now is      885.8 secs

     total energy              =   -7993.80985594 Ry
     Harris-Foulkes estimate   =   -7993.80895081 Ry
     estimated scf accuracy    <       0.00059185 Ry

     total magnetization       =    51.23 Bohr mag/cell
     absolute magnetization    =    54.90 Bohr mag/cell

     iteration # 20     ecut=    54.00 Ry     beta= 0.10
     Davidson diagonalization with overlap
     ethr =  1.42E-07,  avg # of iterations =  1.2

     total cpu time spent up to now is      923.3 secs

     total energy              =   -7993.81043950 Ry
     Harris-Foulkes estimate   =   -7993.80987929 Ry
     estimated scf accuracy    <       0.00050462 Ry

     total magnetization       =    51.22 Bohr mag/cell
     absolute magnetization    =    54.85 Bohr mag/cell

     iteration # 21     ecut=    54.00 Ry     beta= 0.10
     Davidson diagonalization with overlap
     ethr =  1.21E-07,  avg # of iterations =  2.5

     total cpu time spent up to now is      970.5 secs

     total energy              =   -7993.81103330 Ry
     Harris-Foulkes estimate   =   -7993.81053432 Ry
     estimated scf accuracy    <       0.00024783 Ry

     total magnetization       =    51.15 Bohr mag/cell
     absolute magnetization    =    54.70 Bohr mag/cell

     iteration # 22     ecut=    54.00 Ry     beta= 0.10
     Davidson diagonalization with overlap
     ethr =  5.96E-08,  avg # of iterations =  2.6

     total cpu time spent up to now is     1019.4 secs

     total energy              =   -7993.81165823 Ry
     Harris-Foulkes estimate   =   -7993.81109325 Ry
     estimated scf accuracy    <       0.00010857 Ry

     total magnetization       =    51.08 Bohr mag/cell
     absolute magnetization    =    54.56 Bohr mag/cell

     iteration # 23     ecut=    54.00 Ry     beta= 0.10
     Davidson diagonalization with overlap
     ethr =  2.61E-08,  avg # of iterations =  2.4

     total cpu time spent up to now is     1061.5 secs

     total energy              =   -7993.81214460 Ry
     Harris-Foulkes estimate   =   -7993.81166762 Ry
     estimated scf accuracy    <       0.00009515 Ry

     total magnetization       =    51.06 Bohr mag/cell
     absolute magnetization    =    54.53 Bohr mag/cell

     iteration # 24     ecut=    54.00 Ry     beta= 0.10
     Davidson diagonalization with overlap
     ethr =  2.29E-08,  avg # of iterations =  1.0

     total cpu time spent up to now is     1098.2 secs

     total energy              =   -7993.81251993 Ry
     Harris-Foulkes estimate   =   -7993.81215067 Ry
     estimated scf accuracy    <       0.00009012 Ry

     total magnetization       =    51.04 Bohr mag/cell
     absolute magnetization    =    54.50 Bohr mag/cell

     iteration # 25     ecut=    54.00 Ry     beta= 0.10
     Davidson diagonalization with overlap
     ethr =  2.17E-08,  avg # of iterations =  1.4

     total cpu time spent up to now is     1136.3 secs

     total energy              =   -7993.81281415 Ry
     Harris-Foulkes estimate   =   -7993.81252644 Ry
     estimated scf accuracy    <       0.00004213 Ry

     total magnetization       =    51.02 Bohr mag/cell
     absolute magnetization    =    54.47 Bohr mag/cell

     iteration # 26     ecut=    54.00 Ry     beta= 0.10
     Davidson diagonalization with overlap
     ethr =  1.01E-08,  avg # of iterations =  2.5

     total cpu time spent up to now is     1183.3 secs

     total energy              =   -7993.81308543 Ry
     Harris-Foulkes estimate   =   -7993.81282127 Ry
     estimated scf accuracy    <       0.00002482 Ry

     total magnetization       =    50.99 Bohr mag/cell
     absolute magnetization    =    54.43 Bohr mag/cell

     iteration # 27     ecut=    54.00 Ry     beta= 0.10
     Davidson diagonalization with overlap
     ethr =  5.97E-09,  avg # of iterations =  1.6

     total cpu time spent up to now is     1222.4 secs

     total energy              =   -7993.81330781 Ry
     Harris-Foulkes estimate   =   -7993.81308733 Ry
     estimated scf accuracy    <       0.00001741 Ry

     total magnetization       =    50.98 Bohr mag/cell
     absolute magnetization    =    54.41 Bohr mag/cell

     iteration # 28     ecut=    54.00 Ry     beta= 0.10
     Davidson diagonalization with overlap
     ethr =  4.19E-09,  avg # of iterations =  2.3

     total cpu time spent up to now is     1264.8 secs

     total energy              =   -7993.81349864 Ry
     Harris-Foulkes estimate   =   -7993.81330933 Ry
     estimated scf accuracy    <       0.00001303 Ry

     total magnetization       =    50.97 Bohr mag/cell
     absolute magnetization    =    54.40 Bohr mag/cell

     iteration # 29     ecut=    54.00 Ry     beta= 0.10
     Davidson diagonalization with overlap
     ethr =  3.13E-09,  avg # of iterations =  1.3

     total cpu time spent up to now is     1302.4 secs

     total energy              =   -7993.81365737 Ry
     Harris-Foulkes estimate   =   -7993.81349950 Ry
     estimated scf accuracy    <       0.00000946 Ry

     total magnetization       =    50.96 Bohr mag/cell
     absolute magnetization    =    54.39 Bohr mag/cell

     iteration # 30     ecut=    54.00 Ry     beta= 0.10
     Davidson diagonalization with overlap
     ethr =  2.27E-09,  avg # of iterations =  2.5

     total cpu time spent up to now is     1345.5 secs

     total energy              =   -7993.81378916 Ry
     Harris-Foulkes estimate   =   -7993.81365826 Ry
     estimated scf accuracy    <       0.00000751 Ry

     total magnetization       =    50.96 Bohr mag/cell
     absolute magnetization    =    54.38 Bohr mag/cell

     iteration # 31     ecut=    54.00 Ry     beta= 0.10
     Davidson diagonalization with overlap
     ethr =  1.81E-09,  avg # of iterations =  2.3

     total cpu time spent up to now is     1387.5 secs

     total energy              =   -7993.81390098 Ry
     Harris-Foulkes estimate   =   -7993.81379004 Ry
     estimated scf accuracy    <       0.00000504 Ry

     total magnetization       =    50.95 Bohr mag/cell
     absolute magnetization    =    54.37 Bohr mag/cell

     iteration # 32     ecut=    54.00 Ry     beta= 0.10
     Davidson diagonalization with overlap
     ethr =  1.21E-09,  avg # of iterations =  1.1

     total cpu time spent up to now is     1424.6 secs

     total energy              =   -7993.81399941 Ry
     Harris-Foulkes estimate   =   -7993.81390125 Ry
     estimated scf accuracy    <       0.00000405 Ry

     total magnetization       =    50.95 Bohr mag/cell
     absolute magnetization    =    54.37 Bohr mag/cell

     iteration # 33     ecut=    54.00 Ry     beta= 0.10
     Davidson diagonalization with overlap
     ethr =  9.74E-10,  avg # of iterations =  2.7

     total cpu time spent up to now is     1474.7 secs

     total energy              =   -7993.81407376 Ry
     Harris-Foulkes estimate   =   -7993.81400053 Ry
     estimated scf accuracy    <       0.00000361 Ry

     total magnetization       =    50.94 Bohr mag/cell
     absolute magnetization    =    54.38 Bohr mag/cell

     iteration # 34     ecut=    54.00 Ry     beta= 0.10
     Davidson diagonalization with overlap
     ethr =  8.69E-10,  avg # of iterations =  1.2

     total cpu time spent up to now is     1512.4 secs

     total energy              =   -7993.81413143 Ry
     Harris-Foulkes estimate   =   -7993.81407412 Ry
     estimated scf accuracy    <       0.00000466 Ry

     total magnetization       =    50.94 Bohr mag/cell
     absolute magnetization    =    54.38 Bohr mag/cell

     iteration # 35     ecut=    54.00 Ry     beta= 0.10
     Davidson diagonalization with overlap
     ethr =  8.69E-10,  avg # of iterations =  1.5

     total cpu time spent up to now is     1551.3 secs

     total energy              =   -7993.81417809 Ry
     Harris-Foulkes estimate   =   -7993.81413181 Ry
     estimated scf accuracy    <       0.00000126 Ry

     total magnetization       =    50.94 Bohr mag/cell
     absolute magnetization    =    54.38 Bohr mag/cell

     iteration # 36     ecut=    54.00 Ry     beta= 0.10
     Davidson diagonalization with overlap
     ethr =  3.03E-10,  avg # of iterations =  1.6

     total cpu time spent up to now is     1590.7 secs

     total energy              =   -7993.81421487 Ry
     Harris-Foulkes estimate   =   -7993.81417817 Ry
     estimated scf accuracy    <       0.00000072 Ry

     total magnetization       =    50.94 Bohr mag/cell
     absolute magnetization    =    54.38 Bohr mag/cell

     iteration # 37     ecut=    54.00 Ry     beta= 0.10
     Davidson diagonalization with overlap
     ethr =  1.72E-10,  avg # of iterations =  1.5

     total cpu time spent up to now is     1629.2 secs

     total energy              =   -7993.81424535 Ry
     Harris-Foulkes estimate   =   -7993.81421491 Ry
     estimated scf accuracy    <       0.00000054 Ry

     total magnetization       =    50.94 Bohr mag/cell
     absolute magnetization    =    54.38 Bohr mag/cell

     iteration # 38     ecut=    54.00 Ry     beta= 0.10
     Davidson diagonalization with overlap
     ethr =  1.30E-10,  avg # of iterations =  2.1

     total cpu time spent up to now is     1672.2 secs

     total energy              =   -7993.81426996 Ry
     Harris-Foulkes estimate   =   -7993.81424542 Ry
     estimated scf accuracy    <       0.00000034 Ry

     total magnetization       =    50.94 Bohr mag/cell
     absolute magnetization    =    54.39 Bohr mag/cell

     iteration # 39     ecut=    54.00 Ry     beta= 0.10
     Davidson diagonalization with overlap
     ethr =  8.27E-11,  avg # of iterations =  2.5

     total cpu time spent up to now is     1720.0 secs

     total energy              =   -7993.81428887 Ry
     Harris-Foulkes estimate   =   -7993.81427003 Ry
     estimated scf accuracy    <       0.00000020 Ry

     total magnetization       =    50.95 Bohr mag/cell
     absolute magnetization    =    54.39 Bohr mag/cell

     iteration # 40     ecut=    54.00 Ry     beta= 0.10
     Davidson diagonalization with overlap
     ethr =  4.79E-11,  avg # of iterations =  2.0

     total cpu time spent up to now is     1761.0 secs

     total energy              =   -7993.81430401 Ry
     Harris-Foulkes estimate   =   -7993.81428889 Ry
     estimated scf accuracy    <       0.00000013 Ry

     total magnetization       =    50.95 Bohr mag/cell
     absolute magnetization    =    54.39 Bohr mag/cell

     iteration # 41     ecut=    54.00 Ry     beta= 0.10
     Davidson diagonalization with overlap
     ethr =  3.13E-11,  avg # of iterations =  1.8

     total cpu time spent up to now is     1800.5 secs

     total energy              =   -7993.81431621 Ry
     Harris-Foulkes estimate   =   -7993.81430402 Ry
     estimated scf accuracy    <       0.00000009 Ry

     total magnetization       =    50.95 Bohr mag/cell
     absolute magnetization    =    54.39 Bohr mag/cell

     iteration # 42     ecut=    54.00 Ry     beta= 0.10
     Davidson diagonalization with overlap
     ethr =  2.14E-11,  avg # of iterations =  1.4

     total cpu time spent up to now is     1838.6 secs

     total energy              =   -7993.81432612 Ry
     Harris-Foulkes estimate   =   -7993.81431622 Ry
     estimated scf accuracy    <       0.00000006 Ry

     total magnetization       =    50.95 Bohr mag/cell
     absolute magnetization    =    54.39 Bohr mag/cell

     iteration # 43     ecut=    54.00 Ry     beta= 0.10
     Davidson diagonalization with overlap
     ethr =  1.42E-11,  avg # of iterations =  2.4

     total cpu time spent up to now is     1883.9 secs

     total energy              =   -7993.81433397 Ry
     Harris-Foulkes estimate   =   -7993.81432613 Ry
     estimated scf accuracy    <       0.00000004 Ry

     total magnetization       =    50.95 Bohr mag/cell
     absolute magnetization    =    54.40 Bohr mag/cell

     iteration # 44     ecut=    54.00 Ry     beta= 0.10
     Davidson diagonalization with overlap
     ethr =  8.63E-12,  avg # of iterations =  1.1

     total cpu time spent up to now is     1920.8 secs

     total energy              =   -7993.81434025 Ry
     Harris-Foulkes estimate   =   -7993.81433397 Ry
     estimated scf accuracy    <       0.00000007 Ry

     total magnetization       =    50.95 Bohr mag/cell
     absolute magnetization    =    54.40 Bohr mag/cell

     iteration # 45     ecut=    54.00 Ry     beta= 0.10
     Davidson diagonalization with overlap
     ethr =  8.63E-12,  avg # of iterations =  1.0

     total cpu time spent up to now is     1957.4 secs

     total energy              =   -7993.81434533 Ry
     Harris-Foulkes estimate   =   -7993.81434025 Ry
     estimated scf accuracy    <       0.00000002 Ry

     total magnetization       =    50.95 Bohr mag/cell
     absolute magnetization    =    54.40 Bohr mag/cell

     iteration # 46     ecut=    54.00 Ry     beta= 0.10
     Davidson diagonalization with overlap
     ethr =  4.20E-12,  avg # of iterations =  1.0

     total cpu time spent up to now is     1994.0 secs

     total energy              =   -7993.81434941 Ry
     Harris-Foulkes estimate   =   -7993.81434533 Ry
     estimated scf accuracy    <       0.00000001 Ry

     total magnetization       =    50.95 Bohr mag/cell
     absolute magnetization    =    54.40 Bohr mag/cell

     iteration # 47     ecut=    54.00 Ry     beta= 0.10
     Davidson diagonalization with overlap
     ethr =  3.32E-12,  avg # of iterations =  2.1
 
     Magnetic moment per site:
     atom:    1    charge:   14.4361    magn:    2.1285    constr:    0.0000
     atom:    2    charge:   14.4269    magn:    2.1779    constr:    0.0000
     atom:    3    charge:    2.1048    magn:   -0.0337    constr:    0.0000
     atom:    4    charge:    2.1048    magn:   -0.0337    constr:    0.0000
     atom:    5    charge:   14.4092    magn:    2.2457    constr:    0.0000
     atom:    6    charge:   14.4092    magn:    2.2457    constr:    0.0000
     atom:    7    charge:    2.0849    magn:   -0.0216    constr:    0.0000
     atom:    8    charge:    2.0849    magn:   -0.0216    constr:    0.0000
     atom:    9    charge:   14.4683    magn:    2.0117    constr:    0.0000
     atom:   10    charge:   14.4683    magn:    2.0117    constr:    0.0000
     atom:   11    charge:   14.4115    magn:    2.2815    constr:    0.0000
     atom:   12    charge:   14.4115    magn:    2.2815    constr:    0.0000
     atom:   13    charge:   14.3833    magn:    2.4640    constr:    0.0000
     atom:   14    charge:    2.0601    magn:   -0.1003    constr:    0.0000
     atom:   15    charge:   14.4328    magn:    2.1288    constr:    0.0000
     atom:   16    charge:   14.4328    magn:    2.1288    constr:    0.0000
     atom:   17    charge:   14.4361    magn:    2.1285    constr:    0.0000
     atom:   18    charge:   14.4269    magn:    2.1779    constr:    0.0000
     atom:   19    charge:   14.3933    magn:    2.3901    constr:    0.0000
     atom:   20    charge:   14.3933    magn:    2.3901    constr:    0.0000
     atom:   21    charge:    2.0849    magn:   -0.0216    constr:    0.0000
     atom:   22    charge:    2.0849    magn:   -0.0216    constr:    0.0000
     atom:   23    charge:   14.4092    magn:    2.2457    constr:    0.0000
     atom:   24    charge:   14.4092    magn:    2.2457    constr:    0.0000
     atom:   25    charge:   14.4115    magn:    2.2815    constr:    0.0000
     atom:   26    charge:   14.4115    magn:    2.2815    constr:    0.0000
     atom:   27    charge:   14.4683    magn:    2.0117    constr:    0.0000
     atom:   28    charge:   14.4683    magn:    2.0117    constr:    0.0000
     atom:   29    charge:   14.5030    magn:    1.5428    constr:    0.0000
     atom:   30    charge:    2.1191    magn:   -0.0367    constr:    0.0000
     atom:   31    charge:   14.4328    magn:    2.1288    constr:    0.0000
     atom:   32    charge:   14.4328    magn:    2.1288    constr:    0.0000

     total cpu time spent up to now is     2036.2 secs

     End of self-consistent calculation

 ------ SPIN UP ------------


          k = 0.0000 0.0000 0.0000 ( 16353 PWs)   bands (ev):

   -70.6747 -70.6735 -70.6691 -70.6691 -70.6464 -70.6338 -70.6037 -70.5585
   -70.5529 -70.5332 -70.5307 -70.5307 -70.5298 -70.5149 -70.5148 -70.5053
   -70.5043 -70.4925 -70.4923 -70.4594 -70.4594 -70.4495 -70.4449 -70.2271
   -36.8518 -36.8506 -36.8506 -36.8399 -36.8399 -36.8391 -36.8194 -36.8153
   -36.8153 -36.8027 -36.7877 -36.7877 -36.7717 -36.7621 -36.7466 -36.7466
   -36.7114 -36.7003 -36.6855 -36.6855 -36.6805 -36.6788 -36.6760 -36.6760
   -36.6634 -36.6432 -36.6398 -36.6398 -36.6337 -36.6227 -36.6227 -36.6038
   -36.5925 -36.5782 -36.5782 -36.5673 -36.5635 -36.5595 -36.5533 -36.5533
   -36.5509 -36.5492 -36.5492 -36.5308 -36.5308 -36.5197 -36.5197 -36.5160
   -36.5151 -36.5057 -36.5048 -36.4841 -36.4841 -36.4748 -36.4748 -36.4657
   -36.4607 -36.4544 -36.4536 -36.4536 -36.4477 -36.4206 -36.4206 -36.4179
   -36.4124 -36.4092 -36.4092 -36.3867 -36.3867 -36.3194 -36.3194 -36.2350
     3.7546   6.8017   7.4340   7.5107   7.5107   7.5816   8.8461   9.9911
    10.8108  11.2132  11.4293  11.4293  11.5240  11.5654  12.1149  12.1149
    12.1415  12.3202  12.3210  12.3210  12.4614  12.5026  12.6729  12.6935
    12.6935  12.7435  12.7803  12.9057  12.9567  13.0068  13.1961  13.2735
    13.3113  13.4265  13.4265  13.5116  13.7014  13.7192  13.7192  13.8323
    13.8632  13.9087  13.9087  14.0108  14.0173  14.0725  14.0725  14.0967
    14.0967  14.2111  14.3484  14.3484  14.4995  14.5108  14.5586  14.5586
    14.5648  14.5648  14.6799  14.6999  14.7184  14.7473  14.7473  14.8369
    14.8823  15.0057  15.0057  15.0891  15.1473  15.1742  15.1742  15.2357
    15.2357  15.2585  15.2585  15.3014  15.3782  15.3782  15.4251  15.5366
    15.5779  15.5779  15.6237  15.6841  15.6844  15.6844  15.7214  15.7922
    15.8228  15.8648  15.8923  15.8923  16.0199  16.0613  16.0798  16.0901
    16.0901  16.1845  16.1845  16.2082  16.2285  16.2968  16.3027  16.3502
    16.3502  16.3548  16.3746  16.4345  16.4546  16.4889  16.5347  16.5623
    16.5623  16.5755  16.6032  16.6064  16.6074  16.6451  16.6451  16.6583
    16.6773  16.7025  16.7701  16.8008  16.8008  16.9184  16.9491  17.0035
    17.0164  17.0768  17.0840  17.0840  17.2283  17.2283  17.2710  17.4699
    17.4781  17.4781  17.5228  17.5892  17.5892  17.6536  17.6930  17.9014
    17.9266  18.3993  18.3993  18.7907  19.1843  19.1843  19.2252  19.8670
    19.8813  19.8813

          k = 0.0000 0.0000 0.2000 ( 16335 PWs)   bands (ev):

   -70.6740 -70.6731 -70.6696 -70.6695 -70.6451 -70.6348 -70.6040 -70.5576
   -70.5531 -70.5364 -70.5328 -70.5294 -70.5281 -70.5135 -70.5133 -70.5061
   -70.5047 -70.4927 -70.4923 -70.4583 -70.4579 -70.4503 -70.4459 -70.2270
   -36.8505 -36.8494 -36.8482 -36.8399 -36.8376 -36.8364 -36.8138 -36.8125
   -36.8111 -36.8015 -36.7836 -36.7809 -36.7750 -36.7668 -36.7456 -36.7299
   -36.7197 -36.7107 -36.6990 -36.6889 -36.6861 -36.6845 -36.6794 -36.6754
   -36.6573 -36.6482 -36.6446 -36.6315 -36.6298 -36.6284 -36.6227 -36.6089
   -36.5930 -36.5777 -36.5719 -36.5705 -36.5661 -36.5616 -36.5594 -36.5567
   -36.5516 -36.5450 -36.5409 -36.5390 -36.5359 -36.5263 -36.5254 -36.5184
   -36.5026 -36.4964 -36.4888 -36.4847 -36.4840 -36.4814 -36.4759 -36.4588
   -36.4572 -36.4563 -36.4529 -36.4450 -36.4421 -36.4274 -36.4228 -36.4153
   -36.4142 -36.4139 -36.4084 -36.3898 -36.3891 -36.3200 -36.3200 -36.2348
     3.9150   6.4144   6.9288   7.5423   7.6966   8.1390   9.2887   9.9531
    10.4814  10.8365  11.1895  11.3086  11.5050  11.5856  11.9115  12.0928
    12.1506  12.3073  12.4284  12.4704  12.5420  12.6088  12.7396  12.7663
    12.8212  12.8365  12.8470  12.8664  12.9361  13.1361  13.2418  13.2770
    13.2833  13.4618  13.5522  13.6162  13.7183  13.7757  13.8253  13.8370
    13.9128  13.9301  13.9970  14.0048  14.0404  14.0571  14.1043  14.1445
    14.1619  14.1699  14.2073  14.3051  14.3724  14.4798  14.4853  14.5492
    14.6252  14.6299  14.6379  14.6767  14.6972  14.7523  14.7688  14.8029
    14.8519  14.8991  14.9349  14.9569  15.0117  15.1062  15.1505  15.1766
    15.2182  15.2519  15.3017  15.3287  15.3421  15.3548  15.3901  15.4067
    15.4750  15.5194  15.5320  15.5439  15.6236  15.6531  15.6622  15.7455
    15.8380  15.8548  15.8657  15.9268  15.9745  16.0128  16.0297  16.0585
    16.0923  16.1307  16.1615  16.1683  16.2010  16.2725  16.2778  16.2935
    16.3084  16.3699  16.3945  16.4335  16.4449  16.4475  16.4828  16.4898
    16.5091  16.5810  16.5865  16.6035  16.6246  16.6432  16.6912  16.7210
    16.7502  16.8017  16.8032  16.8033  16.8056  16.8428  16.8897  16.9096
    16.9894  17.0120  17.0461  17.1100  17.1492  17.2159  17.3769  17.3895
    17.4708  17.5640  17.6649  17.7040  17.9192  18.0087  18.1044  18.2877
    18.3805  18.4895  18.5609  19.0151  19.0231  19.3125  19.4603  19.6312
    19.8407  20.3555

          k = 0.0000 0.0000 0.4000 ( 16329 PWs)   bands (ev):

   -70.6725 -70.6720 -70.6708 -70.6705 -70.6417 -70.6375 -70.6047 -70.5553
   -70.5534 -70.5405 -70.5344 -70.5287 -70.5273 -70.5107 -70.5102 -70.5080
   -70.5070 -70.4931 -70.4926 -70.4558 -70.4545 -70.4523 -70.4488 -70.2270
   -36.8494 -36.8475 -36.8454 -36.8376 -36.8350 -36.8296 -36.8063 -36.8050
   -36.8042 -36.8023 -36.7733 -36.7715 -36.7647 -36.7640 -36.7420 -36.7388
   -36.7294 -36.7270 -36.7132 -36.7012 -36.6940 -36.6893 -36.6806 -36.6740
   -36.6660 -36.6492 -36.6444 -36.6358 -36.6306 -36.6300 -36.6102 -36.5986
   -36.5945 -36.5835 -36.5778 -36.5720 -36.5709 -36.5675 -36.5648 -36.5564
   -36.5498 -36.5495 -36.5410 -36.5394 -36.5344 -36.5323 -36.5311 -36.5194
   -36.4923 -36.4910 -36.4846 -36.4833 -36.4814 -36.4738 -36.4632 -36.4630
   -36.4544 -36.4492 -36.4425 -36.4420 -36.4322 -36.4306 -36.4262 -36.4254
   -36.4227 -36.4173 -36.4022 -36.4001 -36.3921 -36.3209 -36.3208 -36.2346
     4.3383   5.4576   7.2422   7.5125   7.9255   8.5198   9.5601   9.9001
    10.0593  10.5273  10.5538  11.3355  11.5914  11.7176  11.7338  11.9336
    12.1284  12.2825  12.4541  12.5111  12.6333  12.7750  12.8609  12.8813
    12.9665  13.0193  13.0414  13.0969  13.1964  13.2337  13.3456  13.3818
    13.3820  13.5004  13.6259  13.7000  13.7388  13.7536  13.8262  13.8518
    13.8803  13.9213  13.9843  13.9979  14.0372  14.0971  14.1296  14.1532
    14.1982  14.2325  14.2520  14.2881  14.3495  14.3544  14.4022  14.4790
    14.5235  14.5600  14.6060  14.6185  14.6384  14.6713  14.7152  14.7238
    14.7791  14.7998  14.8365  14.8540  14.8577  14.8676  14.9961  15.0556
    15.0735  15.1091  15.1222  15.1474  15.1932  15.2403  15.2704  15.3211
    15.3713  15.4329  15.5157  15.5875  15.6112  15.6551  15.7081  15.7706
    15.8028  15.8693  15.9004  15.9470  15.9781  16.0114  16.0464  16.0637
    16.0954  16.1168  16.1210  16.1527  16.1616  16.1654  16.2235  16.2755
    16.2926  16.3441  16.3541  16.3830  16.4025  16.4438  16.4448  16.4564
    16.5467  16.5528  16.5660  16.5979  16.6056  16.6518  16.6604  16.7141
    16.7357  16.7717  16.7723  16.8137  16.8162  16.8401  16.9122  16.9828
    16.9829  17.0369  17.0494  17.1532  17.2262  17.3160  17.5008  17.5289
    17.5337  17.5728  17.7924  17.9135  17.9920  18.0302  18.4666  18.5799
    18.7255  19.0745  19.3039  19.4756  19.5929  19.6982  19.8502  19.8744
    20.1141  20.2239

          k = 0.0000 0.2000 0.2000 ( 16378 PWs)   bands (ev):

   -70.6735 -70.6728 -70.6700 -70.6699 -70.6440 -70.6356 -70.6046 -70.5566
   -70.5533 -70.5373 -70.5349 -70.5299 -70.5262 -70.5160 -70.5097 -70.5082
   -70.5041 -70.4929 -70.4925 -70.4573 -70.4570 -70.4510 -70.4469 -70.2271
   -36.8489 -36.8488 -36.8475 -36.8387 -36.8378 -36.8332 -36.8119 -36.8095
   -36.8072 -36.8018 -36.7769 -36.7756 -36.7721 -36.7686 -36.7383 -36.7281
   -36.7204 -36.7129 -36.7070 -36.6929 -36.6901 -36.6849 -36.6834 -36.6682
   -36.6588 -36.6578 -36.6450 -36.6403 -36.6332 -36.6247 -36.6240 -36.6122
   -36.5863 -36.5863 -36.5813 -36.5712 -36.5656 -36.5640 -36.5584 -36.5577
   -36.5553 -36.5460 -36.5453 -36.5430 -36.5324 -36.5235 -36.5230 -36.5045
   -36.4998 -36.4989 -36.4919 -36.4836 -36.4823 -36.4783 -36.4716 -36.4631
   -36.4551 -36.4543 -36.4467 -36.4450 -36.4330 -36.4295 -36.4259 -36.4248
   -36.4156 -36.4089 -36.4075 -36.3937 -36.3905 -36.3208 -36.3197 -36.2348
     4.0749   6.3286   6.8337   7.0667   7.8055   8.7590   9.2475   9.8151
    10.5710  10.7398  11.0744  11.2178  11.3667  11.5200  11.8648  12.0312
    12.2262  12.3030  12.3611  12.5278  12.6452  12.6606  12.7699  12.7955
    12.8555  12.8698  12.9327  12.9477  13.0859  13.1650  13.3743  13.3931
    13.4219  13.4536  13.4997  13.5683  13.7040  13.7614  13.8423  13.8862
    13.9124  13.9277  14.0067  14.0653  14.0769  14.1349  14.1592  14.2008
    14.2065  14.2301  14.2644  14.2682  14.3599  14.4136  14.4292  14.4967
    14.5616  14.5625  14.6424  14.6507  14.6726  14.6820  14.7236  14.7674
    14.7765  14.8198  14.8780  14.9277  14.9622  15.0149  15.0322  15.0545
    15.0865  15.1077  15.1652  15.2253  15.3442  15.3754  15.3757  15.4049
    15.4098  15.4701  15.5081  15.5153  15.5837  15.6103  15.6514  15.7713
    15.8021  15.8371  15.9038  15.9270  15.9307  15.9905  16.0621  16.0898
    16.0912  16.1488  16.1940  16.1975  16.2470  16.2645  16.2924  16.3010
    16.3227  16.3336  16.3541  16.3595  16.4200  16.4250  16.4745  16.4796
    16.5035  16.5314  16.5942  16.6028  16.6081  16.6281  16.6541  16.6556
    16.6692  16.7676  16.7715  16.7835  16.7910  16.8342  16.8596  16.9291
    16.9726  17.0552  17.1644  17.1657  17.2021  17.2032  17.2535  17.4608
    17.5673  17.6529  17.7977  17.9099  17.9192  18.0762  18.2787  18.3732
    18.4439  18.7620  18.8797  19.0569  19.2138  19.5053  19.8651  19.9580
    20.0124  20.1733

          k = 0.0000 0.2000 0.4000 ( 16364 PWs)   bands (ev):

   -70.6724 -70.6719 -70.6710 -70.6706 -70.6411 -70.6377 -70.6055 -70.5546
   -70.5535 -70.5401 -70.5364 -70.5282 -70.5263 -70.5148 -70.5117 -70.5063
   -70.5045 -70.4930 -70.4926 -70.4552 -70.4542 -70.4526 -70.4495 -70.2271
   -36.8483 -36.8468 -36.8458 -36.8377 -36.8353 -36.8301 -36.8075 -36.8050
   -36.8027 -36.8015 -36.7681 -36.7668 -36.7592 -36.7548 -36.7393 -36.7358
   -36.7233 -36.7199 -36.7106 -36.7014 -36.6980 -36.6922 -36.6806 -36.6729
   -36.6665 -36.6555 -36.6465 -36.6458 -36.6347 -36.6238 -36.6223 -36.6103
   -36.6006 -36.5885 -36.5841 -36.5808 -36.5750 -36.5706 -36.5673 -36.5608
   -36.5542 -36.5434 -36.5415 -36.5375 -36.5292 -36.5212 -36.5161 -36.5112
   -36.4950 -36.4937 -36.4888 -36.4803 -36.4775 -36.4766 -36.4661 -36.4632
   -36.4562 -36.4513 -36.4424 -36.4376 -36.4354 -36.4298 -36.4288 -36.4213
   -36.4166 -36.4119 -36.4048 -36.4013 -36.3951 -36.3210 -36.3203 -36.2347
     4.4994   5.5662   6.8416   7.3065   8.0171   8.6870   9.1797   9.9993
    10.3405  10.6215  10.7558  11.3144  11.4444  11.6690  11.7904  11.9037
    11.9973  12.2752  12.3715  12.5947  12.6100  12.7921  12.8400  12.9565
    13.0586  13.0734  13.1418  13.1989  13.2292  13.2888  13.4130  13.4596
    13.4845  13.5559  13.6068  13.6798  13.7466  13.7902  13.8360  13.8711
    13.9347  13.9493  14.0284  14.0659  14.1020  14.1458  14.1628  14.2024
    14.2279  14.2346  14.2528  14.2635  14.3094  14.3607  14.4158  14.4439
    14.4469  14.4947  14.5071  14.5703  14.6000  14.6246  14.6283  14.6766
    14.6950  14.7184  14.7342  14.7683  14.8016  14.8692  14.9047  14.9353
    14.9561  14.9765  15.0249  15.0420  15.1065  15.1752  15.2511  15.2849
    15.2952  15.3385  15.4427  15.4994  15.6380  15.6950  15.7262  15.7692
    15.8205  15.8850  15.9006  15.9218  16.0071  16.0307  16.0896  16.0962
    16.1195  16.1419  16.1479  16.1865  16.2020  16.2469  16.2621  16.2928
    16.3379  16.3548  16.3619  16.3908  16.4126  16.4267  16.4845  16.4929
    16.5242  16.5472  16.5569  16.5728  16.6062  16.6183  16.6420  16.6484
    16.6867  16.7198  16.7681  16.7905  16.8136  16.8482  16.9090  16.9542
    17.0233  17.1016  17.1500  17.1704  17.2483  17.2660  17.3295  17.4562
    17.5523  17.5889  17.6682  17.8133  18.1941  18.2620  18.4794  18.8270
    18.8995  19.0979  19.1854  19.3594  19.4759  19.6923  19.7554  20.0105
    20.1352  20.2431

          k = 0.0000 0.4000 0.4000 ( 16350 PWs)   bands (ev):

   -70.6721 -70.6715 -70.6712 -70.6710 -70.6396 -70.6382 -70.6067 -70.5535
   -70.5530 -70.5396 -70.5391 -70.5275 -70.5247 -70.5174 -70.5156 -70.5037
   -70.5030 -70.4930 -70.4924 -70.4539 -70.4532 -70.4529 -70.4508 -70.2271
   -36.8472 -36.8457 -36.8452 -36.8394 -36.8360 -36.8293 -36.8077 -36.8047
   -36.8009 -36.8004 -36.7586 -36.7531 -36.7466 -36.7409 -36.7351 -36.7299
   -36.7232 -36.7113 -36.7066 -36.7018 -36.7000 -36.6966 -36.6808 -36.6760
   -36.6695 -36.6557 -36.6492 -36.6482 -36.6430 -36.6404 -36.6285 -36.6238
   -36.6195 -36.5940 -36.5912 -36.5841 -36.5816 -36.5758 -36.5712 -36.5699
   -36.5604 -36.5416 -36.5341 -36.5291 -36.5250 -36.5147 -36.5105 -36.5006
   -36.4974 -36.4936 -36.4869 -36.4794 -36.4750 -36.4729 -36.4724 -36.4604
   -36.4561 -36.4529 -36.4410 -36.4393 -36.4370 -36.4268 -36.4246 -36.4197
   -36.4146 -36.4098 -36.4051 -36.4027 -36.3994 -36.3205 -36.3201 -36.2348
     4.9442   5.7168   6.0103   7.2329   8.1899   8.8304   9.0471   9.7111
    10.0615  10.7471  11.0046  11.5740  11.5969  11.8087  11.9186  11.9616
    12.0254  12.0750  12.2840  12.5210  12.5387  12.7898  12.9505  13.0058
    13.1016  13.1858  13.2506  13.3202  13.3866  13.4131  13.4634  13.5179
    13.6103  13.7794  13.7960  13.8078  13.8435  13.8739  13.8849  13.9452
    13.9453  14.0244  14.1019  14.1141  14.1352  14.1621  14.1691  14.1696
    14.1985  14.2031  14.2108  14.2675  14.2847  14.2897  14.3125  14.3208
    14.3483  14.3917  14.4397  14.4566  14.4661  14.4897  14.5125  14.5300
    14.5696  14.5919  14.6420  14.6448  14.6493  14.6861  14.7375  14.7745
    14.7914  14.8516  14.9009  14.9285  14.9838  15.0003  15.0821  15.1488
    15.2080  15.3439  15.3975  15.4378  15.6427  15.6813  15.7369  15.8390
    15.8486  15.8904  15.9694  15.9983  15.9994  16.0219  16.1109  16.1235
    16.1494  16.1910  16.2365  16.2398  16.2717  16.3217  16.3311  16.3489
    16.3493  16.3785  16.3938  16.4317  16.4352  16.4854  16.4897  16.5097
    16.5195  16.5219  16.5403  16.5587  16.5665  16.5879  16.6065  16.6647
    16.6794  16.6822  16.7169  16.7682  16.7935  16.8602  16.8842  16.9167
    17.0950  17.1116  17.1221  17.2096  17.2490  17.2625  17.4411  17.5492
    17.6994  17.7304  17.7552  17.8923  17.9674  18.0033  18.1954  18.5258
    18.7009  18.7531  19.1080  19.6848  19.8229  19.9661  20.0867  20.2675
    20.5854  20.7100

          k = 0.1000 0.0000 0.0000 ( 16382 PWs)   bands (ev):

   -70.6746 -70.6736 -70.6691 -70.6691 -70.6465 -70.6338 -70.6036 -70.5586
   -70.5530 -70.5333 -70.5307 -70.5307 -70.5298 -70.5149 -70.5148 -70.5055
   -70.5042 -70.4926 -70.4922 -70.4594 -70.4594 -70.4496 -70.4449 -70.2271
   -36.8510 -36.8505 -36.8505 -36.8403 -36.8400 -36.8400 -36.8195 -36.8154
   -36.8154 -36.8025 -36.7875 -36.7875 -36.7711 -36.7622 -36.7465 -36.7465
   -36.7116 -36.7003 -36.6855 -36.6855 -36.6810 -36.6789 -36.6761 -36.6761
   -36.6634 -36.6425 -36.6399 -36.6399 -36.6340 -36.6227 -36.6227 -36.6034
   -36.5926 -36.5780 -36.5780 -36.5673 -36.5635 -36.5594 -36.5534 -36.5534
   -36.5511 -36.5491 -36.5491 -36.5309 -36.5309 -36.5197 -36.5197 -36.5160
   -36.5151 -36.5057 -36.5048 -36.4841 -36.4841 -36.4748 -36.4748 -36.4657
   -36.4607 -36.4547 -36.4536 -36.4536 -36.4476 -36.4206 -36.4206 -36.4177
   -36.4124 -36.4092 -36.4092 -36.3867 -36.3867 -36.3194 -36.3194 -36.2350
     3.7552   6.7640   7.4342   7.5108   7.5108   7.6597   8.8388   9.8545
    10.8904  11.2054  11.4242  11.4242  11.5153  11.6471  12.1034  12.1034
    12.1559  12.2581  12.3320  12.3320  12.4898  12.5291  12.6938  12.6993
    12.6993  12.7358  12.7965  12.8606  12.9209  12.9719  13.1710  13.2957
    13.3727  13.4304  13.4304  13.5685  13.6071  13.7434  13.7434  13.8670
    13.8903  13.9350  13.9350  14.0253  14.0662  14.0663  14.0663  14.0905
    14.0905  14.2098  14.3401  14.3401  14.4786  14.5099  14.5520  14.5553
    14.5553  14.5672  14.5672  14.7208  14.7215  14.7485  14.7485  14.8008
    14.9762  15.0214  15.0214  15.0830  15.0830  15.1008  15.1024  15.1878
    15.1878  15.2736  15.2736  15.2941  15.4010  15.4010  15.4085  15.4817
    15.5942  15.5942  15.6232  15.6961  15.6989  15.6989  15.7032  15.8100
    15.8198  15.8463  15.8510  15.8510  16.0010  16.0692  16.0809  16.0809
    16.1081  16.2074  16.2074  16.2168  16.2304  16.3047  16.3108  16.3260
    16.3260  16.3646  16.3736  16.3922  16.4610  16.4877  16.5408  16.5408
    16.5612  16.6012  16.6064  16.6119  16.6123  16.6583  16.6583  16.6773
    16.7153  16.7153  16.8290  16.8290  16.8468  16.9202  16.9648  17.0088
    17.0179  17.0964  17.0964  17.0974  17.2613  17.2733  17.2733  17.4694
    17.4811  17.4811  17.5261  17.5892  17.5892  17.6176  17.6459  17.9013
    17.9584  18.2290  18.2290  18.4853  19.3549  19.3549  19.5873  19.8946
    19.9099  19.9099

          k = 0.1000 0.0000 0.2000 ( 16394 PWs)   bands (ev):

   -70.6740 -70.6732 -70.6696 -70.6695 -70.6452 -70.6349 -70.6041 -70.5577
   -70.5531 -70.5365 -70.5328 -70.5295 -70.5282 -70.5136 -70.5134 -70.5062
   -70.5048 -70.4928 -70.4924 -70.4584 -70.4579 -70.4504 -70.4460 -70.2271
   -36.8502 -36.8493 -36.8480 -36.8398 -36.8380 -36.8365 -36.8139 -36.8125
   -36.8112 -36.8013 -36.7835 -36.7810 -36.7748 -36.7668 -36.7456 -36.7297
   -36.7198 -36.7107 -36.6990 -36.6891 -36.6861 -36.6845 -36.6793 -36.6755
   -36.6574 -36.6480 -36.6449 -36.6315 -36.6296 -36.6285 -36.6227 -36.6086
   -36.5931 -36.5778 -36.5719 -36.5707 -36.5661 -36.5618 -36.5594 -36.5565
   -36.5516 -36.5451 -36.5407 -36.5391 -36.5359 -36.5263 -36.5254 -36.5184
   -36.5025 -36.4964 -36.4888 -36.4847 -36.4840 -36.4815 -36.4759 -36.4590
   -36.4572 -36.4563 -36.4529 -36.4449 -36.4422 -36.4274 -36.4228 -36.4153
   -36.4142 -36.4140 -36.4084 -36.3898 -36.3890 -36.3200 -36.3200 -36.2349
     3.9156   6.4146   6.8950   7.5411   7.7654   8.1389   9.2834   9.8651
    10.4452  10.8808  11.2192  11.3076  11.5295  11.6385  11.8733  12.0427
    12.1948  12.3174  12.3791  12.4338  12.5647  12.6504  12.7291  12.7854
    12.8134  12.8364  12.8698  12.9033  12.9482  13.1135  13.1805  13.2915
    13.3514  13.4139  13.5745  13.6342  13.6866  13.7453  13.8166  13.9053
    13.9184  13.9395  13.9941  14.0248  14.0476  14.0625  14.1090  14.1410
    14.1741  14.1966  14.2182  14.3016  14.3661  14.4606  14.4948  14.5043
    14.5630  14.6179  14.6276  14.6735  14.6877  14.7602  14.7812  14.8165
    14.8336  14.8581  14.9221  14.9689  15.0197  15.0803  15.1103  15.1748
    15.2056  15.2257  15.2807  15.3141  15.3373  15.3598  15.4019  15.4213
    15.4801  15.5187  15.5254  15.5633  15.6305  15.6442  15.7122  15.7396
    15.7982  15.8419  15.8717  15.9055  15.9907  15.9990  16.0168  16.0642
    16.1045  16.1272  16.1556  16.1978  16.2151  16.2723  16.2777  16.2937
    16.3426  16.3661  16.3891  16.4184  16.4255  16.4513  16.4774  16.5028
    16.5354  16.5817  16.5950  16.6158  16.6266  16.6459  16.6605  16.7027
    16.7382  16.7599  16.7812  16.8090  16.8268  16.8782  16.9544  16.9624
    16.9910  17.0212  17.0902  17.1491  17.1782  17.2124  17.3834  17.4219
    17.5228  17.5564  17.6516  17.6825  17.8958  18.0069  18.1280  18.2128
    18.2598  18.4492  18.5655  18.7568  19.1206  19.2901  19.5589  19.8560
    20.0317  20.1387

          k = 0.1000 0.0000 0.4000 ( 16352 PWs)   bands (ev):

   -70.6725 -70.6721 -70.6708 -70.6706 -70.6418 -70.6376 -70.6048 -70.5554
   -70.5535 -70.5406 -70.5345 -70.5287 -70.5273 -70.5108 -70.5102 -70.5080
   -70.5070 -70.4931 -70.4927 -70.4559 -70.4545 -70.4523 -70.4488 -70.2271
   -36.8495 -36.8474 -36.8454 -36.8374 -36.8350 -36.8296 -36.8062 -36.8051
   -36.8044 -36.8021 -36.7733 -36.7715 -36.7648 -36.7640 -36.7420 -36.7387
   -36.7295 -36.7269 -36.7132 -36.7013 -36.6939 -36.6894 -36.6806 -36.6738
   -36.6660 -36.6490 -36.6443 -36.6358 -36.6308 -36.6299 -36.6103 -36.5986
   -36.5944 -36.5835 -36.5780 -36.5720 -36.5710 -36.5676 -36.5650 -36.5566
   -36.5494 -36.5493 -36.5410 -36.5394 -36.5344 -36.5323 -36.5311 -36.5194
   -36.4922 -36.4910 -36.4846 -36.4833 -36.4814 -36.4738 -36.4633 -36.4630
   -36.4543 -36.4495 -36.4426 -36.4416 -36.4322 -36.4306 -36.4264 -36.4254
   -36.4227 -36.4173 -36.4022 -36.4002 -36.3920 -36.3209 -36.3208 -36.2346
     4.3388   5.4580   7.2188   7.5064   7.9712   8.5205   9.5696   9.8446
    10.0494  10.5456  10.6378  11.2448  11.5345  11.6639  11.7609  11.9664
    12.1504  12.2710  12.4354  12.5610  12.6556  12.7535  12.8284  12.9277
    12.9732  13.0501  13.1064  13.1234  13.1988  13.2341  13.3365  13.3724
    13.4176  13.4772  13.6209  13.7025  13.7448  13.7632  13.8205  13.8490
    13.8782  13.9033  13.9705  14.0149  14.0237  14.0499  14.0872  14.1523
    14.1832  14.2144  14.2377  14.2998  14.3478  14.3902  14.4220  14.4753
    14.5044  14.5707  14.5795  14.6147  14.6425  14.6731  14.6980  14.7403
    14.7496  14.7949  14.8271  14.8343  14.8654  14.9075  14.9845  15.0300
    15.0779  15.0881  15.1265  15.1499  15.2060  15.2423  15.2728  15.3132
    15.3643  15.4601  15.5163  15.5615  15.6447  15.6734  15.7122  15.7646
    15.8171  15.8428  15.8835  15.9393  15.9641  15.9940  16.0484  16.0596
    16.0961  16.1155  16.1447  16.1566  16.1937  16.2024  16.2262  16.2827
    16.2981  16.3324  16.3568  16.3737  16.3986  16.4297  16.4474  16.4711
    16.5051  16.5554  16.5852  16.6077  16.6120  16.6357  16.6793  16.6973
    16.7135  16.7610  16.7892  16.8159  16.8288  16.8920  16.9273  16.9641
    16.9928  17.0667  17.1046  17.1851  17.2818  17.3858  17.4330  17.5050
    17.5461  17.6219  17.7039  17.8405  18.0677  18.0968  18.4666  18.5675
    18.6860  18.8330  19.1921  19.4264  19.4901  19.6659  19.7269  19.9069
    20.1140  20.1922

          k = 0.1000 0.2000 0.2000 ( 16363 PWs)   bands (ev):

   -70.6735 -70.6729 -70.6699 -70.6698 -70.6440 -70.6355 -70.6046 -70.5566
   -70.5533 -70.5373 -70.5348 -70.5299 -70.5261 -70.5159 -70.5096 -70.5083
   -70.5041 -70.4929 -70.4924 -70.4572 -70.4569 -70.4510 -70.4469 -70.2271
   -36.8488 -36.8487 -36.8475 -36.8388 -36.8376 -36.8334 -36.8120 -36.8097
   -36.8072 -36.8016 -36.7768 -36.7757 -36.7720 -36.7687 -36.7383 -36.7278
   -36.7204 -36.7129 -36.7070 -36.6929 -36.6902 -36.6848 -36.6834 -36.6682
   -36.6590 -36.6579 -36.6451 -36.6401 -36.6332 -36.6245 -36.6240 -36.6122
   -36.5864 -36.5863 -36.5811 -36.5713 -36.5659 -36.5639 -36.5586 -36.5576
   -36.5554 -36.5460 -36.5452 -36.5430 -36.5324 -36.5235 -36.5228 -36.5045
   -36.4998 -36.4989 -36.4919 -36.4836 -36.4823 -36.4783 -36.4716 -36.4631
   -36.4551 -36.4544 -36.4467 -36.4449 -36.4330 -36.4294 -36.4260 -36.4247
   -36.4156 -36.4090 -36.4075 -36.3937 -36.3904 -36.3208 -36.3197 -36.2348
     4.0755   6.3287   6.8317   7.0390   7.8628   8.7583   9.2460   9.7674
    10.5763  10.7234  10.9236  11.2823  11.5249  11.5736  11.8516  11.9791
    12.1867  12.2723  12.4038  12.5303  12.6356  12.6531  12.7604  12.8061
    12.8658  12.9052  12.9519  12.9956  13.0505  13.1496  13.2903  13.4021
    13.4322  13.4678  13.5170  13.6178  13.7087  13.7462  13.8016  13.8905
    13.9227  13.9652  13.9994  14.0466  14.0856  14.1375  14.1875  14.2012
    14.2077  14.2342  14.2609  14.3005  14.3661  14.4019  14.4310  14.4773
    14.5403  14.5585  14.6056  14.6215  14.6675  14.6894  14.6931  14.7580
    14.7605  14.8367  14.8457  14.9204  14.9768  14.9845  14.9918  15.0491
    15.1045  15.1230  15.2116  15.2460  15.3086  15.3312  15.3763  15.3767
    15.4044  15.4739  15.5038  15.5361  15.5868  15.6578  15.6902  15.7500
    15.7889  15.8181  15.8902  15.9263  15.9283  16.0036  16.0563  16.0704
    16.1000  16.1449  16.1656  16.2113  16.2653  16.2754  16.2962  16.3182
    16.3182  16.3451  16.3715  16.3799  16.4038  16.4252  16.4749  16.4753
    16.5243  16.5418  16.5897  16.6040  16.6152  16.6285  16.6654  16.6713
    16.6852  16.7165  16.7340  16.7770  16.8188  16.8492  16.8713  16.9776
    17.0230  17.0904  17.1014  17.1564  17.1990  17.2252  17.3981  17.4307
    17.5618  17.5764  17.8591  17.8978  17.9112  18.1367  18.2200  18.2676
    18.5277  18.7617  18.8097  18.9512  19.1896  19.5788  19.6945  19.9116
    19.9272  20.1279

          k = 0.1000 0.2000 0.4000 ( 16331 PWs)   bands (ev):

   -70.6723 -70.6718 -70.6709 -70.6707 -70.6410 -70.6377 -70.6054 -70.5545
   -70.5535 -70.5401 -70.5363 -70.5282 -70.5263 -70.5148 -70.5116 -70.5063
   -70.5044 -70.4930 -70.4925 -70.4552 -70.4542 -70.4525 -70.4494 -70.2270
   -36.8483 -36.8468 -36.8457 -36.8377 -36.8354 -36.8300 -36.8075 -36.8050
   -36.8027 -36.8015 -36.7682 -36.7668 -36.7593 -36.7548 -36.7393 -36.7358
   -36.7233 -36.7199 -36.7105 -36.7015 -36.6980 -36.6922 -36.6806 -36.6729
   -36.6665 -36.6554 -36.6465 -36.6457 -36.6348 -36.6237 -36.6222 -36.6103
   -36.6006 -36.5885 -36.5842 -36.5808 -36.5749 -36.5706 -36.5672 -36.5610
   -36.5543 -36.5434 -36.5417 -36.5373 -36.5290 -36.5212 -36.5160 -36.5112
   -36.4951 -36.4936 -36.4887 -36.4803 -36.4775 -36.4766 -36.4661 -36.4632
   -36.4563 -36.4514 -36.4422 -36.4376 -36.4355 -36.4297 -36.4288 -36.4213
   -36.4166 -36.4119 -36.4048 -36.4014 -36.3950 -36.3210 -36.3203 -36.2347
     4.4999   5.5665   6.8413   7.2881   8.0465   8.6791   9.1889   9.9795
    10.3661  10.5857  10.8192  11.2986  11.3813  11.6373  11.7207  11.9689
    12.0364  12.2640  12.4052  12.5911  12.6258  12.7802  12.8556  12.9565
    13.0290  13.1003  13.1574  13.2079  13.2561  13.2958  13.4048  13.4758
    13.5000  13.5701  13.6186  13.6500  13.7326  13.7794  13.8341  13.8726
    13.9041  13.9666  14.0169  14.0302  14.0950  14.1320  14.1414  14.1841
    14.2052  14.2348  14.2510  14.2874  14.3371  14.3809  14.4037  14.4476
    14.4720  14.4822  14.5059  14.5600  14.5736  14.6025  14.6413  14.6736
    14.6903  14.7095  14.7674  14.7759  14.7978  14.8563  14.8995  14.9282
    14.9355  14.9766  14.9962  15.0546  15.1315  15.1923  15.2399  15.2690
    15.2937  15.3757  15.4356  15.5084  15.6471  15.7100  15.7383  15.7629
    15.8193  15.8754  15.9108  15.9315  16.0022  16.0186  16.0748  16.0878
    16.1238  16.1452  16.1651  16.1938  16.2066  16.2477  16.2688  16.2952
    16.3352  16.3464  16.3639  16.3943  16.4182  16.4323  16.4868  16.5064
    16.5253  16.5486  16.5690  16.5959  16.6016  16.6231  16.6317  16.6478
    16.6815  16.7113  16.7561  16.7706  16.8149  16.8269  16.9144  16.9707
    17.0023  17.0678  17.1645  17.2027  17.2528  17.2857  17.4005  17.4658
    17.5127  17.6902  17.7560  17.9158  18.0863  18.2801  18.3575  18.7143
    18.8849  19.0504  19.1714  19.2415  19.4147  19.6543  19.7867  19.9738
    20.0765  20.4233

          k = 0.1000 0.4000 0.4000 ( 16366 PWs)   bands (ev):

   -70.6721 -70.6715 -70.6712 -70.6710 -70.6395 -70.6383 -70.6067 -70.5535
   -70.5529 -70.5396 -70.5391 -70.5275 -70.5248 -70.5174 -70.5156 -70.5037
   -70.5030 -70.4930 -70.4925 -70.4539 -70.4533 -70.4529 -70.4509 -70.2271
   -36.8470 -36.8457 -36.8453 -36.8394 -36.8362 -36.8292 -36.8077 -36.8046
   -36.8010 -36.8005 -36.7586 -36.7531 -36.7466 -36.7410 -36.7351 -36.7299
   -36.7232 -36.7114 -36.7066 -36.7017 -36.6999 -36.6967 -36.6807 -36.6760
   -36.6695 -36.6556 -36.6492 -36.6483 -36.6429 -36.6404 -36.6285 -36.6238
   -36.6195 -36.5941 -36.5912 -36.5841 -36.5815 -36.5758 -36.5714 -36.5699
   -36.5604 -36.5418 -36.5341 -36.5290 -36.5249 -36.5145 -36.5106 -36.5005
   -36.4973 -36.4936 -36.4870 -36.4794 -36.4750 -36.4729 -36.4724 -36.4604
   -36.4561 -36.4530 -36.4409 -36.4393 -36.4370 -36.4268 -36.4246 -36.4197
   -36.4145 -36.4098 -36.4051 -36.4027 -36.3994 -36.3205 -36.3201 -36.2348
     4.9446   5.7169   6.0106   7.2279   8.1901   8.8330   9.0397   9.7057
    10.0768  10.8172  11.0600  11.5146  11.5768  11.6839  11.9030  11.9146
    12.0032  12.1367  12.3403  12.5216  12.5256  12.8123  12.9814  13.0165
    13.1192  13.1757  13.1944  13.3687  13.4085  13.4257  13.4742  13.5272
    13.6266  13.7676  13.7787  13.8093  13.8362  13.8664  13.8675  13.9351
    13.9425  14.0249  14.0339  14.0742  14.1160  14.1421  14.1585  14.1675
    14.1925  14.2085  14.2386  14.2517  14.2870  14.3045  14.3247  14.3280
    14.3666  14.3995  14.4308  14.4359  14.4863  14.4880  14.5161  14.5271
    14.5574  14.6039  14.6337  14.6354  14.6864  14.7274  14.7402  14.7906
    14.7982  14.8551  14.8684  14.9303  14.9977  15.0130  15.1129  15.1570
    15.1955  15.3114  15.3988  15.4301  15.6702  15.6750  15.7407  15.8361
    15.8583  15.8887  15.9716  15.9750  15.9940  16.0165  16.0936  16.1393
    16.1973  16.1988  16.2282  16.2337  16.2758  16.3062  16.3222  16.3504
    16.3524  16.3724  16.3848  16.4275  16.4547  16.4569  16.4920  16.4986
    16.5117  16.5240  16.5399  16.5633  16.5921  16.6032  16.6203  16.6489
    16.6876  16.6988  16.7268  16.7710  16.8186  16.8199  16.9141  16.9307
    17.0578  17.0706  17.1595  17.2042  17.2477  17.2945  17.3435  17.5822
    17.5878  17.7534  17.8256  17.8382  18.0504  18.1059  18.3654  18.4508
    18.6687  19.0985  19.1193  19.3531  19.6374  19.8360  19.9573  20.1620
    20.5293  20.6152

          k = 0.2000 0.0000 0.0000 ( 16358 PWs)   bands (ev):

   -70.6744 -70.6738 -70.6691 -70.6691 -70.6465 -70.6338 -70.6036 -70.5588
   -70.5529 -70.5333 -70.5307 -70.5307 -70.5297 -70.5149 -70.5148 -70.5055
   -70.5040 -70.4926 -70.4921 -70.4593 -70.4593 -70.4496 -70.4447 -70.2270
   -36.8502 -36.8502 -36.8489 -36.8428 -36.8404 -36.8404 -36.8197 -36.8156
   -36.8156 -36.8022 -36.7873 -36.7873 -36.7702 -36.7624 -36.7464 -36.7464
   -36.7117 -36.7004 -36.6855 -36.6855 -36.6818 -36.6790 -36.6763 -36.6763
   -36.6633 -36.6414 -36.6400 -36.6400 -36.6348 -36.6227 -36.6227 -36.6027
   -36.5928 -36.5779 -36.5779 -36.5673 -36.5636 -36.5592 -36.5535 -36.5535
   -36.5514 -36.5490 -36.5490 -36.5310 -36.5310 -36.5197 -36.5197 -36.5160
   -36.5151 -36.5057 -36.5048 -36.4841 -36.4841 -36.4749 -36.4749 -36.4658
   -36.4607 -36.4551 -36.4535 -36.4535 -36.4475 -36.4206 -36.4206 -36.4175
   -36.4124 -36.4093 -36.4093 -36.3866 -36.3866 -36.3194 -36.3194 -36.2351
     3.7562   6.7123   7.4344   7.5110   7.5110   7.7858   8.8214   9.6719
    10.9520  11.1930  11.4160  11.4160  11.6169  11.7162  12.0879  12.0879
    12.1270  12.1852  12.3468  12.3468  12.5484  12.5855  12.6663  12.7053
    12.7084  12.7084  12.7815  12.8606  12.9401  12.9423  13.1270  13.3333
    13.4210  13.4360  13.4360  13.4669  13.6318  13.7846  13.7846  13.8764
    13.9775  13.9775  14.0111  14.0615  14.0632  14.0632  14.0909  14.0909
    14.1380  14.2060  14.3290  14.3380  14.3380  14.5079  14.5162  14.5162
    14.5306  14.5797  14.5797  14.7238  14.7387  14.7528  14.7528  14.7593
    14.8881  14.8922  14.8922  15.0110  15.0951  15.0951  15.1689  15.1689
    15.2531  15.2531  15.2626  15.2988  15.3471  15.4545  15.4545  15.5507
    15.5903  15.6085  15.6085  15.6203  15.6883  15.6883  15.7040  15.7907
    15.8042  15.8105  15.8105  15.8367  15.9561  16.0623  16.0623  16.1171
    16.1497  16.2211  16.2211  16.2282  16.2410  16.2800  16.3006  16.3006
    16.3225  16.3752  16.3844  16.3907  16.4366  16.4749  16.5248  16.5248
    16.6002  16.6057  16.6066  16.6261  16.6350  16.6472  16.6583  16.6773
    16.7488  16.7488  16.8951  16.9469  16.9469  16.9506  16.9842  17.0232
    17.0503  17.1018  17.1502  17.1502  17.2711  17.2825  17.2825  17.4499
    17.4692  17.4880  17.4880  17.5530  17.6315  17.6463  17.6463  17.9015
    17.9642  17.9642  18.0263  18.2075  19.5791  19.5791  19.9434  19.9857
    19.9857  19.9969

          k = 0.2000 0.0000 0.2000 ( 16419 PWs)   bands (ev):

   -70.6739 -70.6734 -70.6697 -70.6695 -70.6452 -70.6349 -70.6041 -70.5577
   -70.5532 -70.5364 -70.5329 -70.5296 -70.5282 -70.5136 -70.5134 -70.5062
   -70.5049 -70.4929 -70.4924 -70.4584 -70.4579 -70.4504 -70.4460 -70.2271
   -36.8496 -36.8493 -36.8478 -36.8397 -36.8389 -36.8367 -36.8141 -36.8124
   -36.8114 -36.8011 -36.7835 -36.7810 -36.7745 -36.7669 -36.7456 -36.7294
   -36.7198 -36.7108 -36.6990 -36.6894 -36.6860 -36.6845 -36.6792 -36.6756
   -36.6575 -36.6478 -36.6455 -36.6313 -36.6292 -36.6286 -36.6227 -36.6082
   -36.5933 -36.5780 -36.5717 -36.5709 -36.5661 -36.5620 -36.5593 -36.5563
   -36.5517 -36.5451 -36.5404 -36.5392 -36.5358 -36.5263 -36.5254 -36.5184
   -36.5025 -36.4964 -36.4888 -36.4847 -36.4840 -36.4815 -36.4759 -36.4592
   -36.4572 -36.4563 -36.4529 -36.4446 -36.4423 -36.4273 -36.4228 -36.4153
   -36.4144 -36.4140 -36.4083 -36.3898 -36.3889 -36.3200 -36.3199 -36.2349
     3.9165   6.4149   6.8480   7.5403   7.8743   8.1383   9.2703   9.7349
    10.3968  10.9469  11.2189  11.3325  11.5759  11.7459  11.8342  11.9538
    12.2223  12.2566  12.3805  12.4165  12.6107  12.6879  12.6916  12.7922
    12.8410  12.8520  12.8751  12.9486  13.0285  13.0486  13.1533  13.3104
    13.3671  13.3995  13.5013  13.6116  13.6950  13.7482  13.8448  13.9047
    13.9700  13.9943  14.0080  14.0385  14.0592  14.1045  14.1447  14.1617
    14.1947  14.2077  14.2336  14.2956  14.3605  14.3793  14.4412  14.4761
    14.5442  14.5518  14.5728  14.6403  14.6811  14.7574  14.7747  14.8056
    14.8203  14.8581  14.9114  14.9762  14.9973  15.0556  15.0909  15.1087
    15.1626  15.2478  15.2687  15.3227  15.3464  15.3941  15.4016  15.4510
    15.4666  15.5248  15.5445  15.5905  15.6268  15.6829  15.7039  15.7276
    15.7550  15.7997  15.8300  15.9112  15.9412  16.0082  16.0228  16.0863
    16.1087  16.1247  16.1926  16.2328  16.2448  16.2568  16.2673  16.3097
    16.3522  16.3741  16.3802  16.4085  16.4186  16.4487  16.4559  16.4852
    16.5592  16.5924  16.6181  16.6227  16.6376  16.6628  16.6647  16.6794
    16.7522  16.7561  16.7668  16.7907  16.8151  16.8924  16.9435  16.9788
    17.0578  17.1287  17.1473  17.1734  17.1989  17.3235  17.4523  17.4714
    17.5216  17.5622  17.6091  17.7285  17.7872  17.8325  18.0305  18.1375
    18.3134  18.3690  18.6000  18.6887  19.0493  19.4009  19.5673  19.9142
    19.9518  20.3523

          k = 0.2000 0.0000 0.4000 ( 16376 PWs)   bands (ev):

   -70.6725 -70.6720 -70.6709 -70.6707 -70.6418 -70.6376 -70.6048 -70.5554
   -70.5535 -70.5406 -70.5345 -70.5288 -70.5273 -70.5108 -70.5102 -70.5080
   -70.5070 -70.4931 -70.4927 -70.4560 -70.4546 -70.4523 -70.4489 -70.2271
   -36.8497 -36.8473 -36.8455 -36.8372 -36.8351 -36.8297 -36.8058 -36.8053
   -36.8047 -36.8018 -36.7733 -36.7715 -36.7649 -36.7641 -36.7420 -36.7387
   -36.7297 -36.7268 -36.7131 -36.7015 -36.6938 -36.6895 -36.6806 -36.6735
   -36.6660 -36.6487 -36.6440 -36.6359 -36.6312 -36.6298 -36.6103 -36.5986
   -36.5944 -36.5837 -36.5784 -36.5720 -36.5710 -36.5677 -36.5652 -36.5569
   -36.5493 -36.5486 -36.5410 -36.5394 -36.5345 -36.5324 -36.5311 -36.5194
   -36.4921 -36.4910 -36.4845 -36.4832 -36.4813 -36.4738 -36.4633 -36.4630
   -36.4543 -36.4498 -36.4427 -36.4411 -36.4322 -36.4306 -36.4267 -36.4254
   -36.4227 -36.4173 -36.4023 -36.4003 -36.3919 -36.3209 -36.3208 -36.2346
     4.3395   5.4585   7.1846   7.4987   8.0410   8.5215   9.5922   9.7731
     9.9996  10.6280  10.7738  11.1387  11.3203  11.6966  11.7284  12.0418
    12.1577  12.2556  12.4186  12.6053  12.7055  12.7591  12.8371  12.8911
    13.0522  13.1004  13.1448  13.1674  13.2006  13.2671  13.3298  13.3656
    13.3929  13.5267  13.6119  13.6727  13.7532  13.7806  13.8181  13.8454
    13.8694  13.8858  13.9494  13.9598  14.0043  14.0262  14.0557  14.1395
    14.1604  14.2002  14.2242  14.3273  14.3551  14.3923  14.4167  14.4581
    14.4724  14.5696  14.5880  14.6169  14.6289  14.6598  14.7010  14.7300
    14.7471  14.7989  14.8064  14.8350  14.8858  14.9554  14.9781  15.0009
    15.0273  15.1027  15.1122  15.1608  15.2088  15.2326  15.2652  15.3056
    15.3553  15.4653  15.5341  15.6089  15.6744  15.6950  15.7179  15.7664
    15.7710  15.8054  15.8725  15.9090  15.9757  16.0021  16.0292  16.0522
    16.1097  16.1312  16.1495  16.2001  16.2087  16.2176  16.2463  16.2666
    16.2991  16.3283  16.3550  16.3742  16.3972  16.4159  16.4717  16.4859
    16.5002  16.5387  16.5613  16.5999  16.6152  16.6272  16.6780  16.6926
    16.7237  16.7648  16.7898  16.8289  16.8463  16.9037  16.9501  16.9589
    17.0995  17.1153  17.1538  17.2329  17.3556  17.3872  17.4411  17.5511
    17.5828  17.6355  17.6926  17.8716  17.9303  18.1664  18.2779  18.4372
    18.7461  18.8856  19.0260  19.0608  19.3872  19.5216  19.6998  19.7923
    20.1674  20.2105

          k = 0.2000 0.2000 0.2000 ( 16371 PWs)   bands (ev):

   -70.6734 -70.6729 -70.6700 -70.6698 -70.6439 -70.6356 -70.6046 -70.5566
   -70.5533 -70.5373 -70.5348 -70.5298 -70.5262 -70.5159 -70.5097 -70.5083
   -70.5040 -70.4930 -70.4924 -70.4572 -70.4570 -70.4510 -70.4469 -70.2271
   -36.8486 -36.8486 -36.8477 -36.8390 -36.8374 -36.8337 -36.8120 -36.8099
   -36.8072 -36.8014 -36.7766 -36.7758 -36.7719 -36.7690 -36.7383 -36.7275
   -36.7203 -36.7130 -36.7070 -36.6929 -36.6903 -36.6847 -36.6834 -36.6681
   -36.6593 -36.6582 -36.6452 -36.6398 -36.6332 -36.6242 -36.6240 -36.6121
   -36.5865 -36.5863 -36.5809 -36.5714 -36.5665 -36.5636 -36.5588 -36.5575
   -36.5556 -36.5461 -36.5450 -36.5430 -36.5324 -36.5233 -36.5226 -36.5045
   -36.4998 -36.4989 -36.4919 -36.4836 -36.4823 -36.4783 -36.4716 -36.4631
   -36.4552 -36.4546 -36.4468 -36.4446 -36.4331 -36.4293 -36.4262 -36.4247
   -36.4156 -36.4090 -36.4074 -36.3937 -36.3904 -36.3208 -36.3197 -36.2348
     4.0764   6.3290   6.8275   7.0014   7.9531   8.7571   9.2436   9.6866
    10.5858  10.6993  10.7964  11.3609  11.6876  11.6918  11.8031  11.9200
    12.1369  12.2232  12.4251  12.5122  12.6219  12.6405  12.7721  12.8351
    12.8907  12.9544  12.9965  13.0221  13.0583  13.1677  13.1700  13.3162
    13.4877  13.5030  13.5611  13.5758  13.6710  13.7378  13.7965  13.9367
    13.9781  13.9893  13.9997  14.0863  14.1007  14.1457  14.1704  14.2059
    14.2176  14.2486  14.2627  14.3273  14.3397  14.3661  14.4169  14.4330
    14.4848  14.5259  14.5792  14.5935  14.6472  14.6930  14.6998  14.7567
    14.7674  14.8144  14.8434  14.8785  14.9090  14.9544  14.9666  15.0715
    15.1457  15.1680  15.2313  15.2323  15.3078  15.3270  15.3497  15.3522
    15.3897  15.4773  15.5390  15.5660  15.5674  15.6730  15.7157  15.7206
    15.7627  15.8471  15.8705  15.9078  15.9183  16.0100  16.0457  16.0506
    16.1169  16.1524  16.1922  16.2040  16.2587  16.2798  16.2954  16.3163
    16.3187  16.3526  16.3639  16.3836  16.4249  16.4544  16.4706  16.5080
    16.5134  16.5693  16.5935  16.6075  16.6247  16.6296  16.6596  16.6609
    16.6915  16.7074  16.7325  16.8065  16.8318  16.8651  16.8961  16.9929
    17.0423  17.0845  17.1031  17.2068  17.2414  17.3061  17.4073  17.5029
    17.5347  17.6376  17.7042  17.8762  17.8881  18.0890  18.1064  18.3723
    18.5670  18.7686  18.8129  18.9852  19.1370  19.4335  19.5044  19.7843
    19.8791  19.9608

          k = 0.2000 0.2000 0.4000 ( 16343 PWs)   bands (ev):

   -70.6723 -70.6718 -70.6710 -70.6707 -70.6410 -70.6377 -70.6054 -70.5545
   -70.5535 -70.5401 -70.5364 -70.5282 -70.5263 -70.5149 -70.5116 -70.5064
   -70.5043 -70.4930 -70.4926 -70.4552 -70.4543 -70.4524 -70.4494 -70.2271
   -36.8482 -36.8470 -36.8456 -36.8377 -36.8355 -36.8300 -36.8075 -36.8051
   -36.8028 -36.8014 -36.7682 -36.7668 -36.7593 -36.7549 -36.7392 -36.7358
   -36.7234 -36.7199 -36.7104 -36.7016 -36.6980 -36.6922 -36.6805 -36.6729
   -36.6664 -36.6553 -36.6466 -36.6457 -36.6349 -36.6237 -36.6221 -36.6103
   -36.6006 -36.5885 -36.5843 -36.5807 -36.5746 -36.5707 -36.5671 -36.5614
   -36.5546 -36.5435 -36.5420 -36.5370 -36.5286 -36.5213 -36.5158 -36.5113
   -36.4951 -36.4935 -36.4887 -36.4803 -36.4775 -36.4767 -36.4661 -36.4632
   -36.4563 -36.4517 -36.4418 -36.4376 -36.4356 -36.4297 -36.4289 -36.4212
   -36.4167 -36.4119 -36.4048 -36.4014 -36.3949 -36.3210 -36.3203 -36.2347
     4.5007   5.5670   6.8407   7.2608   8.0919   8.6668   9.2045   9.9513
    10.3954  10.5462  10.9479  11.2334  11.3346  11.4508  11.7922  11.9616
    12.1462  12.2184  12.4527  12.5822  12.6243  12.7821  12.8901  12.9632
    13.0128  13.1290  13.1632  13.2282  13.2790  13.3262  13.4052  13.4491
    13.5499  13.5693  13.6210  13.6990  13.7080  13.7584  13.7901  13.8605
    13.8969  13.9316  13.9884  14.0181  14.0646  14.1137  14.1368  14.1762
    14.1895  14.2064  14.2647  14.2992  14.3453  14.3789  14.3990  14.4459
    14.4727  14.4960  14.5129  14.5279  14.5726  14.6270  14.6519  14.6728
    14.6851  14.7124  14.7445  14.7746  14.7963  14.8356  14.8859  14.9021
    14.9468  14.9800  15.0147  15.0660  15.1210  15.1593  15.2427  15.2784
    15.3165  15.3742  15.4376  15.5525  15.6417  15.7250  15.7509  15.7694
    15.8288  15.8764  15.9197  15.9309  15.9896  16.0035  16.0607  16.0743
    16.1269  16.1495  16.1866  16.2066  16.2289  16.2359  16.2649  16.2959
    16.3264  16.3419  16.3962  16.4054  16.4229  16.4367  16.4775  16.5169
    16.5357  16.5567  16.5823  16.5989  16.6121  16.6179  16.6285  16.6530
    16.6761  16.7029  16.7115  16.7686  16.7955  16.8617  16.8998  16.9253
    16.9970  17.0434  17.1706  17.2049  17.2841  17.3506  17.4722  17.5518
    17.6584  17.7376  17.8907  17.9488  18.0907  18.1685  18.2892  18.5477
    18.6462  18.8574  19.0777  19.2757  19.3425  19.5560  19.7830  20.1877
    20.2604  20.4011

          k = 0.2000 0.4000 0.4000 ( 16311 PWs)   bands (ev):

   -70.6720 -70.6714 -70.6712 -70.6709 -70.6395 -70.6382 -70.6066 -70.5535
   -70.5528 -70.5395 -70.5390 -70.5274 -70.5247 -70.5173 -70.5155 -70.5037
   -70.5030 -70.4929 -70.4924 -70.4539 -70.4532 -70.4529 -70.4508 -70.2270
   -36.8467 -36.8457 -36.8454 -36.8394 -36.8366 -36.8291 -36.8077 -36.8046
   -36.8010 -36.8005 -36.7586 -36.7530 -36.7465 -36.7412 -36.7351 -36.7299
   -36.7231 -36.7114 -36.7066 -36.7015 -36.6997 -36.6971 -36.6806 -36.6760
   -36.6696 -36.6555 -36.6491 -36.6484 -36.6429 -36.6404 -36.6285 -36.6240
   -36.6195 -36.5943 -36.5913 -36.5840 -36.5813 -36.5758 -36.5716 -36.5699
   -36.5604 -36.5422 -36.5341 -36.5289 -36.5248 -36.5141 -36.5107 -36.5004
   -36.4972 -36.4937 -36.4870 -36.4795 -36.4750 -36.4729 -36.4723 -36.4604
   -36.4561 -36.4532 -36.4406 -36.4394 -36.4370 -36.4269 -36.4246 -36.4197
   -36.4145 -36.4098 -36.4051 -36.4027 -36.3994 -36.3205 -36.3201 -36.2348
     4.9454   5.7173   6.0112   7.2199   8.1906   8.8362   9.0282   9.6993
    10.1056  10.9867  11.1715  11.2641  11.5858  11.6344  11.7969  11.9263
    11.9503  12.1094  12.3821  12.5223  12.5983  12.8532  13.0115  13.0160
    13.1044  13.1671  13.1728  13.4150  13.4436  13.4850  13.4858  13.5376
    13.6528  13.7323  13.7504  13.7979  13.8208  13.8661  13.8669  13.8941
    13.9150  13.9702  14.0091  14.0698  14.0913  14.1146  14.1330  14.1544
    14.1853  14.2027  14.2094  14.2444  14.2914  14.3156  14.3316  14.3445
    14.3866  14.4096  14.4514  14.4637  14.4801  14.4890  14.5221  14.5263
    14.5738  14.5774  14.6533  14.6610  14.6866  14.7160  14.7486  14.7944
    14.8209  14.8434  14.8941  14.9888  14.9917  15.0302  15.1181  15.1668
    15.1805  15.2604  15.4140  15.4322  15.6447  15.6819  15.7799  15.8363
    15.8773  15.8869  15.9448  15.9688  15.9817  16.0206  16.1013  16.1389
    16.1969  16.2112  16.2431  16.2600  16.2644  16.2897  16.3124  16.3371
    16.3395  16.3723  16.3970  16.4313  16.4509  16.4626  16.4803  16.4936
    16.5083  16.5312  16.5483  16.5639  16.6154  16.6178  16.6303  16.6577
    16.6666  16.6851  16.6854  16.7926  16.8382  16.8765  16.9324  16.9528
    17.0502  17.0852  17.1062  17.1558  17.2323  17.2903  17.3658  17.4787
    17.5251  17.7103  17.9184  18.0159  18.1251  18.1420  18.5061  18.7009
    18.7302  18.9879  19.1345  19.2947  19.5234  19.6946  19.7772  19.8201
    20.2112  20.3209

 ------ SPIN DOWN ----------


          k = 0.0000 0.0000 0.0000 ( 16353 PWs)   bands (ev):

   -68.4296 -68.3105 -68.3081 -68.3081 -68.3075 -68.0467 -68.0464 -68.0143
   -68.0136 -68.0119 -68.0118 -67.9350 -67.9342 -67.8583 -67.8365 -67.8365
   -67.8317 -67.8158 -67.8110 -67.8110 -67.8089 -67.8071 -67.7780 -67.6838
   -34.6382 -34.6382 -34.5599 -34.5080 -34.5080 -34.5055 -34.5052 -34.4801
   -34.4801 -34.4799 -34.4408 -34.3967 -34.3927 -34.3927 -34.3593 -34.2555
   -34.2555 -34.2417 -34.2402 -34.2305 -34.2205 -34.2205 -34.2002 -34.1993
   -34.1993 -34.1832 -34.1784 -34.1359 -34.1359 -34.1338 -34.1230 -34.1150
   -34.1150 -34.0925 -34.0925 -34.0794 -34.0794 -34.0526 -34.0526 -34.0275
   -34.0275 -34.0196 -34.0180 -34.0172 -34.0172 -33.9783 -33.9772 -33.9522
   -33.9330 -33.9330 -33.9309 -33.9130 -33.9110 -33.8975 -33.8975 -33.8961
   -33.8851 -33.8851 -33.8848 -33.8803 -33.8800 -33.8559 -33.8559 -33.8333
   -33.8312 -33.8312 -33.7626 -33.7626 -33.7495 -33.7327 -33.7044 -33.7044
     3.7582   6.8661   7.4528   7.5898   7.5898   7.6268   8.9044  10.1678
    11.0768  11.3953  11.5978  11.5978  11.8779  12.0157  12.4719  12.4719
    12.6506  12.6506  12.7478  13.2110  13.3101  13.4341  13.8080  13.8086
    13.8197  13.8197  13.9075  13.9259  14.1389  14.1389  14.3118  14.4628
    14.5849  14.6194  14.6236  14.6870  14.6976  14.6976  15.0693  15.1578
    15.1578  15.1943  15.2667  15.2667  15.3093  15.3500  15.6913  15.7348
    15.7348  15.8546  15.8546  15.9115  16.0216  16.0216  16.1391  16.1391
    16.1590  16.2341  16.2341  16.2482  16.3052  16.3264  16.3806  16.3806
    16.5574  16.6419  16.6419  16.7588  16.8131  16.8285  16.8726  16.8743
    16.8743  16.9189  16.9719  16.9863  17.0528  17.0528  17.0748  17.0748
    17.1573  17.1573  17.2350  17.2350  17.3353  17.3704  17.5007  17.5007
    17.5804  17.6041  17.8868  17.9214  17.9214  18.0716  18.1382  18.1382
    18.2646  18.2956  18.2956  18.3005  18.3607  18.3881  18.4548  18.4548
    18.5108  18.5914  18.6602  18.6602  18.6850  18.7496  18.8294  18.8743
    18.9063  18.9188  18.9188  18.9389  18.9457  19.0245  19.0692  19.1053
[...]
    16.6333  16.6383  16.6581  16.6753  16.7156  16.7457  16.7560  16.8650
    16.9688  17.0406  17.0898  17.1364  17.2207  17.2815  17.3211  17.4568
    17.4945  17.6211  17.6710  17.7337  17.7571  17.8040  17.8488  17.9184
    17.9336  18.0042  18.0174  18.0887  18.1607  18.2049  18.2242  18.3274
    18.3538  18.4065  18.4417  18.4694  18.4813  18.5750  18.6040  18.6167
    18.6655  18.7004  18.7246  18.7540  18.7634  18.7974  18.8494  18.8764
    18.9330  18.9519  19.0220  19.0341  19.0487  19.0819  19.0955  19.1062
    19.1223  19.1430  19.1701  19.1868  19.2564  19.2710  19.3009  19.3390
    19.3627  19.4178  19.4665  19.4884  19.5060  19.5288  19.5442  19.5915
    19.7071  19.8706  19.8889  19.9402  20.0200  20.2083  20.3576  20.6324
    20.8148  21.0130

          k = 0.1996 0.0000 0.3982 ( 16376 PWs)   bands (ev):

   -68.6490 -68.5326 -68.5323 -68.5320 -68.5293 -68.2515 -68.2514 -68.2367
   -68.2365 -68.2353 -68.2353 -68.1695 -68.1693 -68.0674 -68.0616 -68.0537
   -68.0522 -68.0311 -68.0308 -68.0209 -68.0197 -68.0052 -67.9981 -67.9053
   -34.8545 -34.8543 -34.7744 -34.7262 -34.7257 -34.7256 -34.7247 -34.6985
   -34.6984 -34.6969 -34.6655 -34.6245 -34.5939 -34.5937 -34.5784 -34.4583
   -34.4559 -34.4525 -34.4506 -34.4366 -34.4336 -34.4301 -34.4274 -34.4236
   -34.4180 -34.3958 -34.3941 -34.3534 -34.3486 -34.3447 -34.3413 -34.3382
   -34.3352 -34.3277 -34.3221 -34.3094 -34.2918 -34.2877 -34.2799 -34.2786
   -34.2599 -34.2526 -34.2266 -34.2183 -34.2105 -34.1921 -34.1768 -34.1759
   -34.1607 -34.1588 -34.1571 -34.1446 -34.1315 -34.1244 -34.1215 -34.1133
   -34.1132 -34.1062 -34.0920 -34.0883 -34.0851 -34.0780 -34.0661 -34.0415
   -34.0364 -34.0081 -33.9899 -33.9884 -33.9843 -33.9472 -33.9324 -33.9319
     4.2547   5.3425   7.0779   7.4016   7.8800   8.4188   9.5171   9.7661
     9.9458  10.6404  10.8026  11.2079  11.4269  11.8669  11.9525  12.3661
    12.4290  12.6127  12.9493  13.1695  13.2119  13.3217  13.5615  13.6805
    13.7696  13.9689  14.0616  14.1103  14.1993  14.2938  14.3791  14.5695
    14.6189  14.7129  14.7818  14.8611  14.8745  14.9272  14.9314  15.0282
    15.0557  15.0745  15.0946  15.1421  15.2154  15.2510  15.3819  15.4069
    15.4408  15.5297  15.5639  15.5872  15.6468  15.6727  15.6949  15.7599
    15.7889  15.8413  15.8895  15.9136  15.9544  15.9649  15.9998  16.0388
    16.1142  16.1286  16.1823  16.1949  16.2570  16.3049  16.3295  16.3449
    16.3734  16.4142  16.4968  16.5235  16.5864  16.6566  16.7217  16.7641
    16.8217  16.9445  17.0873  17.2075  17.2708  17.3559  17.3922  17.4789
    17.6418  17.6709  17.6935  17.8012  17.8575  17.8714  17.9513  17.9892
    18.0560  18.0954  18.1218  18.1390  18.1931  18.2061  18.2347  18.2586
    18.3561  18.3823  18.4282  18.4386  18.4848  18.5100  18.5580  18.5978
    18.6505  18.6835  18.7212  18.7404  18.7538  18.8135  18.8394  18.8675
    18.8895  18.9292  18.9407  18.9512  19.0346  19.0515  19.0637  19.1067
    19.1188  19.1660  19.1990  19.2108  19.2404  19.2652  19.2800  19.3111
    19.3837  19.4472  19.5125  19.5620  19.5708  19.7308  19.7657  19.8066
    19.9326  20.0583  20.1713  20.2702  20.3840  20.4383  20.5237  20.8205
    20.9710  21.0408

          k = 0.1996 0.1991 0.1991 ( 16371 PWs)   bands (ev):

   -68.6490 -68.5330 -68.5320 -68.5317 -68.5296 -68.2518 -68.2517 -68.2362
   -68.2360 -68.2356 -68.2355 -68.1695 -68.1692 -68.0700 -68.0581 -68.0547
   -68.0517 -68.0308 -68.0296 -68.0217 -68.0193 -68.0099 -67.9950 -67.9053
   -34.8549 -34.8545 -34.7744 -34.7266 -34.7258 -34.7255 -34.7244 -34.6999
   -34.6984 -34.6974 -34.6646 -34.6205 -34.6002 -34.5948 -34.5764 -34.4627
   -34.4603 -34.4551 -34.4514 -34.4359 -34.4339 -34.4333 -34.4227 -34.4201
   -34.4126 -34.4051 -34.3944 -34.3578 -34.3500 -34.3450 -34.3448 -34.3371
   -34.3348 -34.3162 -34.3133 -34.3129 -34.3004 -34.2844 -34.2814 -34.2577
   -34.2496 -34.2459 -34.2357 -34.2269 -34.2182 -34.1967 -34.1807 -34.1694
   -34.1604 -34.1575 -34.1489 -34.1453 -34.1342 -34.1231 -34.1187 -34.1089
   -34.1074 -34.1056 -34.0975 -34.0889 -34.0865 -34.0819 -34.0709 -34.0466
   -34.0356 -34.0234 -33.9928 -33.9780 -33.9756 -33.9515 -33.9317 -33.9278
     3.9882   6.2100   6.7354   6.8996   7.7968   8.6897   9.1665   9.6132
    10.5952  10.6959  10.8328  11.4459  11.8148  11.8839  11.9505  12.1594
    12.4196  12.5080  12.9278  13.0023  13.2035  13.2819  13.5256  13.6197
    13.6545  13.8575  13.9547  14.0385  14.1559  14.1609  14.2472  14.4088
    14.6070  14.6587  14.6933  14.7818  14.8404  14.8611  14.9177  14.9992
    15.0293  15.0332  15.0935  15.0979  15.1914  15.3774  15.5644  15.5776
    15.6087  15.6178  15.6647  15.6970  15.7083  15.7726  15.7764  15.8021
    15.8273  15.8274  15.8769  15.9384  15.9762  16.0010  16.0193  16.0491
    16.1075  16.1617  16.1737  16.2529  16.2606  16.3317  16.3483  16.4467
    16.4733  16.4907  16.5422  16.5790  16.6043  16.7311  16.7614  16.7829
    16.8883  16.9341  17.0213  17.1278  17.1360  17.2733  17.4101  17.4236
    17.5639  17.6109  17.7799  17.7901  17.8961  17.9054  17.9489  17.9505
    17.9942  18.0398  18.0527  18.1165  18.1322  18.2231  18.2674  18.2710
    18.3090  18.3863  18.4305  18.4715  18.4766  18.5250  18.6014  18.6538
    18.6592  18.6865  18.7374  18.7536  18.8045  18.8055  18.8564  18.8968
    18.9187  18.9443  18.9721  18.9750  19.0446  19.0861  19.0918  19.1148
    19.1328  19.1388  19.1485  19.1766  19.1778  19.2310  19.2337  19.3271
    19.3368  19.3699  19.3700  19.4294  19.5546  19.5712  19.6489  19.6748
    19.8464  19.8771  20.0777  20.0950  20.2088  20.2910  20.5394  20.6712
    20.7299  20.7862

          k = 0.1996 0.1991 0.3982 ( 16343 PWs)   bands (ev):

   -68.6490 -68.5325 -68.5322 -68.5320 -68.5293 -68.2511 -68.2510 -68.2367
   -68.2366 -68.2355 -68.2354 -68.1696 -68.1693 -68.0665 -68.0617 -68.0539
   -68.0524 -68.0313 -68.0311 -68.0213 -68.0199 -68.0039 -67.9984 -67.9053
   -34.8546 -34.8543 -34.7745 -34.7262 -34.7258 -34.7251 -34.7244 -34.6995
   -34.6970 -34.6955 -34.6667 -34.6239 -34.5941 -34.5913 -34.5784 -34.4578
   -34.4547 -34.4477 -34.4452 -34.4335 -34.4310 -34.4273 -34.4244 -34.4226
   -34.4164 -34.3993 -34.3944 -34.3564 -34.3548 -34.3496 -34.3443 -34.3375
   -34.3334 -34.3263 -34.3216 -34.3043 -34.2984 -34.2942 -34.2834 -34.2687
   -34.2632 -34.2526 -34.2254 -34.2220 -34.2168 -34.1916 -34.1822 -34.1763
   -34.1616 -34.1589 -34.1546 -34.1495 -34.1299 -34.1241 -34.1160 -34.1129
   -34.1098 -34.1058 -34.0930 -34.0911 -34.0869 -34.0782 -34.0707 -34.0493
   -34.0243 -34.0049 -33.9989 -33.9858 -33.9772 -33.9499 -33.9326 -33.9300
     4.4152   5.4491   6.7402   7.1482   7.9187   8.5664   9.1129   9.8778
    10.4175  10.5660  10.9997  11.3380  11.4391  11.5878  11.9531  12.1791
    12.4790  12.5684  12.9605  13.0748  13.1873  13.3317  13.5346  13.6714
    13.8004  13.9970  14.1585  14.2748  14.3874  14.4371  14.5175  14.6268
    14.6853  14.7709  14.8154  14.8830  14.9120  14.9654  15.0122  15.0325
    15.0993  15.1685  15.1975  15.2281  15.2580  15.2751  15.4179  15.4388
    15.5223  15.5595  15.5671  15.5907  15.6378  15.6681  15.6955  15.7424
    15.7826  15.8087  15.8142  15.8526  15.8958  15.9147  15.9839  16.0126
    16.0390  16.0703  16.0947  16.1333  16.1703  16.2141  16.2434  16.2608
    16.3039  16.3381  16.3643  16.4232  16.4593  16.5026  16.5964  16.7335
    16.7984  16.8788  16.9077  17.0260  17.2097  17.3096  17.4333  17.5222
    17.6168  17.6510  17.7147  17.7739  17.8102  17.8918  17.9451  18.0443
    18.0583  18.1271  18.1825  18.2127  18.2567  18.2833  18.2959  18.3332
    18.3529  18.3934  18.4469  18.4916  18.5087  18.5385  18.5762  18.6196
    18.6302  18.6679  18.6942  18.7381  18.7786  18.7976  18.8316  18.8448
    18.8594  18.9095  18.9171  18.9657  18.9996  19.0195  19.0667  19.0744
    19.0840  19.1274  19.1347  19.1550  19.1930  19.2179  19.2408  19.3368
    19.3680  19.3855  19.4624  19.5224  19.6211  19.6414  19.7171  19.8278
    19.9219  20.0168  20.1182  20.2276  20.3928  20.5973  20.6893  20.9017
    21.1386  21.2523

          k = 0.1996 0.3982 0.3982 ( 16311 PWs)   bands (ev):

   -68.6489 -68.5324 -68.5322 -68.5321 -68.5291 -68.2504 -68.2504 -68.2370
   -68.2369 -68.2356 -68.2356 -68.1697 -68.1695 -68.0644 -68.0625 -68.0546
   -68.0526 -68.0317 -68.0317 -68.0220 -68.0199 -68.0014 -67.9994 -67.9053
   -34.8547 -34.8545 -34.7746 -34.7260 -34.7259 -34.7244 -34.7242 -34.7004
   -34.6944 -34.6938 -34.6689 -34.6230 -34.5915 -34.5897 -34.5785 -34.4574
   -34.4529 -34.4355 -34.4338 -34.4278 -34.4267 -34.4229 -34.4217 -34.4213
   -34.4169 -34.4018 -34.3970 -34.3611 -34.3606 -34.3570 -34.3484 -34.3348
   -34.3347 -34.3291 -34.3233 -34.3171 -34.2972 -34.2879 -34.2815 -34.2801
   -34.2594 -34.2425 -34.2295 -34.2255 -34.2198 -34.1921 -34.1897 -34.1789
   -34.1718 -34.1591 -34.1581 -34.1447 -34.1300 -34.1248 -34.1136 -34.1115
   -34.1048 -34.1039 -34.0975 -34.0919 -34.0862 -34.0781 -34.0759 -34.0546
   -34.0141 -34.0032 -33.9971 -33.9894 -33.9701 -33.9549 -33.9307 -33.9292
     4.8612   5.5921   5.9150   7.0854   8.0004   8.7321   8.9371   9.5982
    10.1007  11.0363  11.2658  11.3217  11.7617  11.7722  11.9707  12.1390
    12.2868  12.3552  12.7278  13.0500  13.1481  13.4652  13.6332  13.6711
    13.8673  14.1862  14.2381  14.3930  14.5148  14.5842  14.7158  14.7721
    14.8092  14.9541  14.9630  15.0010  15.0699  15.0898  15.1206  15.1617
    15.1670  15.2208  15.2765  15.2893  15.3356  15.3895  15.4066  15.4640
    15.4737  15.5455  15.5597  15.5746  15.6011  15.6642  15.6675  15.7154
    15.7176  15.7411  15.7605  15.7886  15.8023  15.8288  15.8862  15.8902
    15.9156  15.9555  15.9663  16.0463  16.0886  16.0946  16.1118  16.1298
    16.1490  16.1938  16.2469  16.2792  16.2806  16.3597  16.4087  16.4621
    16.5748  16.7717  16.8404  16.8489  17.1656  17.1984  17.4851  17.5508
    17.5667  17.6120  17.6998  17.7484  17.7583  17.8428  17.8832  17.9712
    18.0658  18.1741  18.2086  18.3031  18.3183  18.3982  18.4062  18.4644
    18.4676  18.5128  18.5392  18.5419  18.5540  18.6210  18.6266  18.6343
    18.6804  18.7194  18.7267  18.7383  18.7524  18.7929  18.7956  18.8242
    18.8336  18.9061  18.9062  18.9188  18.9363  18.9657  18.9738  18.9870
    19.0195  19.0510  19.0618  19.0833  19.0932  19.1070  19.1757  19.2018
    19.2595  19.3055  19.4327  19.4762  19.5881  19.6100  19.8422  19.9159
    20.0665  20.1777  20.2060  20.3698  20.3762  20.7111  20.7426  20.8392
    21.0397  21.1951

     the Fermi energy is    17.3796 ev

!    total energy              =   -7993.83048709 Ry
     Harris-Foulkes estimate   =   -7993.83048395 Ry
     estimated scf accuracy    <          7.4E-09 Ry

     The total energy is the sum of the following terms:

     one-electron contribution =   -3930.65656420 Ry
     hartree contribution      =    2230.93595683 Ry
     xc contribution           =    -887.11220697 Ry
     ewald contribution        =   -3579.40863653 Ry
     one-center paw contrib.   =   -1827.58976607 Ry
     smearing contrib. (-TS)   =       0.00072985 Ry

     total magnetization       =    51.30 Bohr mag/cell
     absolute magnetization    =    54.89 Bohr mag/cell

     convergence has been achieved in  40 iterations

     Forces acting on atoms (cartesian axes, Ry/au):

     atom    1 type  2   force =     0.02618466    0.00000000    0.00000000
     atom    2 type  2   force =    -0.01292076    0.00000000    0.00000000
     atom    3 type  1   force =     0.00000000    0.00000000    0.00000000
     atom    4 type  1   force =     0.00000000    0.00000000    0.00000000
     atom    5 type  2   force =     0.00210028   -0.00217014   -0.00217014
     atom    6 type  2   force =     0.00210028    0.00217014    0.00217014
     atom    7 type  1   force =    -0.05956430   -0.01793306    0.01793306
     atom    8 type  1   force =    -0.05956430    0.01793306   -0.01793306
     atom    9 type  2   force =     0.02041630   -0.00576709   -0.00576709
     atom   10 type  2   force =     0.02041630    0.00576709    0.00576709
     atom   11 type  2   force =     0.01074547    0.00486028   -0.00486028
     atom   12 type  2   force =     0.01074547   -0.00486028    0.00486028
     atom   13 type  2   force =     0.00000000    0.00000000    0.00000000
     atom   14 type  1   force =     0.00000000    0.00000000    0.00000000
     atom   15 type  2   force =     0.01470054    0.00000000    0.00000000
     atom   16 type  2   force =     0.01470054    0.00000000    0.00000000
     atom   17 type  2   force =    -0.02618466    0.00000000    0.00000000
     atom   18 type  2   force =     0.01292076    0.00000000    0.00000000
     atom   19 type  2   force =     0.00000000    0.00000000    0.00000000
     atom   20 type  2   force =     0.00000000    0.00000000    0.00000000
     atom   21 type  1   force =     0.05956430   -0.01793306   -0.01793306
     atom   22 type  1   force =     0.05956430    0.01793306    0.01793306
     atom   23 type  2   force =    -0.00210028   -0.00217014    0.00217014
     atom   24 type  2   force =    -0.00210028    0.00217014   -0.00217014
     atom   25 type  2   force =    -0.01074547    0.00486028    0.00486028
     atom   26 type  2   force =    -0.01074547   -0.00486028   -0.00486028
     atom   27 type  2   force =    -0.02041630   -0.00576709    0.00576709
     atom   28 type  2   force =    -0.02041630    0.00576709   -0.00576709
     atom   29 type  2   force =     0.00000000    0.00000000    0.00000000
     atom   30 type  1   force =     0.00000000    0.00000000    0.00000000
     atom   31 type  2   force =    -0.01470054    0.00000000    0.00000000
     atom   32 type  2   force =    -0.01470054    0.00000000    0.00000000

     Total force =     0.148235     Total SCF correction =     0.000245


     Computing stress (Cartesian axis) and pressure

          total   stress  (Ry/bohr**3)                   (kbar)     P=        5.45
  -0.00011574   0.00000000   0.00000000          -17.03        0.00        0.00
   0.00000000   0.00011348   0.00000000            0.00       16.69        0.00
   0.00000000   0.00000000   0.00011348            0.00        0.00       16.69


===================================================================================
=   BAD TERMINATION OF ONE OF YOUR APPLICATION PROCESSES
=   RANK 1 PID 29031 RUNNING AT r5c01cn4.hopper
=   KILLED BY SIGNAL: 9 (Killed)
===================================================================================

===================================================================================
=   BAD TERMINATION OF ONE OF YOUR APPLICATION PROCESSES
=   RANK 2 PID 29032 RUNNING AT r5c01cn4.hopper
=   KILLED BY SIGNAL: 9 (Killed)
===================================================================================

===================================================================================
=   BAD TERMINATION OF ONE OF YOUR APPLICATION PROCESSES
=   RANK 3 PID 29033 RUNNING AT r5c01cn4.hopper
=   KILLED BY SIGNAL: 9 (Killed)
===================================================================================

===================================================================================
=   BAD TERMINATION OF ONE OF YOUR APPLICATION PROCESSES
=   RANK 4 PID 29034 RUNNING AT r5c01cn4.hopper
=   KILLED BY SIGNAL: 9 (Killed)
===================================================================================

===================================================================================
=   BAD TERMINATION OF ONE OF YOUR APPLICATION PROCESSES
=   RANK 5 PID 29035 RUNNING AT r5c01cn4.hopper
=   KILLED BY SIGNAL: 9 (Killed)
===================================================================================

===================================================================================
=   BAD TERMINATION OF ONE OF YOUR APPLICATION PROCESSES
=   RANK 6 PID 29036 RUNNING AT r5c01cn4.hopper
=   KILLED BY SIGNAL: 9 (Killed)
===================================================================================

===================================================================================
=   BAD TERMINATION OF ONE OF YOUR APPLICATION PROCESSES
=   RANK 7 PID 29037 RUNNING AT r5c01cn4.hopper
=   KILLED BY SIGNAL: 9 (Killed)
===================================================================================

===================================================================================
=   BAD TERMINATION OF ONE OF YOUR APPLICATION PROCESSES
=   RANK 8 PID 29038 RUNNING AT r5c01cn4.hopper
=   KILLED BY SIGNAL: 9 (Killed)
===================================================================================

===================================================================================
=   BAD TERMINATION OF ONE OF YOUR APPLICATION PROCESSES
=   RANK 9 PID 29039 RUNNING AT r5c01cn4.hopper
=   KILLED BY SIGNAL: 9 (Killed)
===================================================================================

===================================================================================
=   BAD TERMINATION OF ONE OF YOUR APPLICATION PROCESSES
=   RANK 10 PID 29040 RUNNING AT r5c01cn4.hopper
=   KILLED BY SIGNAL: 9 (Killed)
===================================================================================

===================================================================================
=   BAD TERMINATION OF ONE OF YOUR APPLICATION PROCESSES
=   RANK 11 PID 29041 RUNNING AT r5c01cn4.hopper
=   KILLED BY SIGNAL: 9 (Killed)
===================================================================================

===================================================================================
=   BAD TERMINATION OF ONE OF YOUR APPLICATION PROCESSES
=   RANK 12 PID 29042 RUNNING AT r5c01cn4.hopper
=   KILLED BY SIGNAL: 9 (Killed)
===================================================================================

===================================================================================
=   BAD TERMINATION OF ONE OF YOUR APPLICATION PROCESSES
=   RANK 13 PID 29043 RUNNING AT r5c01cn4.hopper
=   KILLED BY SIGNAL: 9 (Killed)
===================================================================================

===================================================================================
=   BAD TERMINATION OF ONE OF YOUR APPLICATION PROCESSES
=   RANK 14 PID 29044 RUNNING AT r5c01cn4.hopper
=   KILLED BY SIGNAL: 9 (Killed)
===================================================================================

===================================================================================
=   BAD TERMINATION OF ONE OF YOUR APPLICATION PROCESSES
=   RANK 15 PID 29045 RUNNING AT r5c01cn4.hopper
=   KILLED BY SIGNAL: 9 (Killed)
===================================================================================

===================================================================================
=   BAD TERMINATION OF ONE OF YOUR APPLICATION PROCESSES
=   RANK 16 PID 29046 RUNNING AT r5c01cn4.hopper
=   KILLED BY SIGNAL: 9 (Killed)
===================================================================================

===================================================================================
=   BAD TERMINATION OF ONE OF YOUR APPLICATION PROCESSES
=   RANK 17 PID 29047 RUNNING AT r5c01cn4.hopper
=   KILLED BY SIGNAL: 9 (Killed)
===================================================================================

===================================================================================
=   BAD TERMINATION OF ONE OF YOUR APPLICATION PROCESSES
=   RANK 18 PID 29048 RUNNING AT r5c01cn4.hopper
=   KILLED BY SIGNAL: 9 (Killed)
===================================================================================

===================================================================================
=   BAD TERMINATION OF ONE OF YOUR APPLICATION PROCESSES
=   RANK 19 PID 29049 RUNNING AT r5c01cn4.hopper
=   KILLED BY SIGNAL: 9 (Killed)
===================================================================================
