
     Program PWSCF v.7.1 starts on 22Nov2022 at 11:35:11 
        Git branch: master
        Last git commit: ce561e80fa51fbc2904c59db0bf7fc0b825e1bb9
        Last git commit date: Thu Jun 16 14:15:26 2022 +0000
        Last git commit subject: Merge branch 'master-qe-7.1' into 'master'

     This program is part of the open-source Quantum ESPRESSO suite
     for quantum simulation of materials; please cite
         "P. Giannozzi et al., J. Phys.:Condens. Matter 21 395502 (2009);
         "P. Giannozzi et al., J. Phys.:Condens. Matter 29 465901 (2017);
         "P. Giannozzi et al., J. Chem. Phys. 152 154105 (2020);
          URL http://www.quantum-espresso.org", 
     in publications or presentations arising from this work. More details at
     http://www.quantum-espresso.org/quote

     Parallel version (MPI), running on     1 processors

     MPI processes distributed on     1 nodes
     3046 MiB available memory on the printing compute node when the environment starts

     Waiting for input...
     Reading input from standard input

     Current dimensions of program PWSCF are:
     Max number of different atomic species (ntypx) = 10
     Max number of k-points (npk) =  40000
     Max angular momentum in pseudopotentials (lmaxx) =  4
     file Fe.pbe-spn-kjpaw_psl.0.2.1.UPF: wavefunction(s)  3D renormalized

     IMPORTANT: XC functional enforced from input :
     Exchange-correlation= PBE
                           (   1   4   3   4   0   0   0)
     Any further DFT definition will be discarded
     Please, verify this is what you really want

     Found identity + (  0.0000 -0.5000 -0.5000) symmetry
     This is a supercell, fractional translations are disabled
     Message from routine setup:
     using ibrav=0 with symmetry is DISCOURAGED, use correct ibrav instead

     Subspace diagonalization in iterative solution of the eigenvalue problem:
     a serial algorithm will be used


     G-vector sticks info
     --------------------
     sticks:   dense  smooth     PW     G-vecs:    dense   smooth      PW
     Sum        3917    1941    553               184739    65117    9771

     Using Slab Decomposition



     bravais-lattice index     =            0
     lattice parameter (alat)  =      10.6864  a.u.
     unit-cell volume          =    1220.3782 (a.u.)^3
     number of atoms/cell      =           16
     number of atomic types    =            2
     number of electrons       =       232.00
     number of Kohn-Sham states=          139
     kinetic-energy cutoff     =      54.0000  Ry
     charge density cutoff     =     432.0000  Ry
     scf convergence threshold =      1.0E-08
     mixing beta               =       0.7000
     number of iterations used =            8  plain     mixing
     energy convergence thresh.=      1.0E-04
     force convergence thresh. =      1.0E-03
     press convergence thresh. =      5.0E-01
     Exchange-correlation= PBE
                           (   1   4   3   4   0   0   0)
     nstep                     =           50


     celldm(1)=  10.686401  celldm(2)=   0.000000  celldm(3)=   0.000000
     celldm(4)=   0.000000  celldm(5)=   0.000000  celldm(6)=   0.000000

     crystal axes: (cart. coord. in units of alat)
               a(1) = (   1.000000   0.000000   0.000000 )  
               a(2) = (   0.000000   1.000000   0.000000 )  
               a(3) = (   0.000000   0.000000   1.000000 )  

     reciprocal axes: (cart. coord. in units 2 pi/alat)
               b(1) = (  1.000000  0.000000  0.000000 )  
               b(2) = (  0.000000  1.000000  0.000000 )  
               b(3) = (  0.000000  0.000000  1.000000 )  


     PseudoPot. # 1 for Si read from file:
     ./Si.pbe-n-rrkjus_psl.1.0.0.UPF
     MD5 check sum: 0b0bb1205258b0d07b9f9672cf965d36
     Pseudo is Ultrasoft + core correction, Zval =  4.0
     Generated using "atomic" code by A. Dal Corso  v.5.1
     Using radial grid of 1141 points,  6 beta functions with: 
                l(1) =   0
                l(2) =   0
                l(3) =   1
                l(4) =   1
                l(5) =   2
                l(6) =   2
     Q(r) pseudized with 0 coefficients 


     PseudoPot. # 2 for Fe read from file:
     ./Fe.pbe-spn-kjpaw_psl.0.2.1.UPF
     MD5 check sum: e86618425769142926afa95317d90200
     Pseudo is Projector augmented-wave + core cor, Zval = 16.0
     Generated using "atomic" code by A. Dal Corso  v.5.0.99 svn rev. 10869
     Shape of augmentation charge: PSQ
     Using radial grid of 1191 points,  6 beta functions with: 
                l(1) =   0
                l(2) =   0
                l(3) =   1
                l(4) =   1
                l(5) =   2
                l(6) =   2
     Q(r) pseudized with 0 coefficients 


     atomic species   valence    mass     pseudopotential
        Si             4.00    28.08500     Si( 1.00)
        Fe            16.00    55.84500     Fe( 1.00)

     Starting magnetic structure 
     atomic species   magnetization
        Si           1.000
        Fe           1.000

     16 Sym. Ops., with inversion, found



   Cartesian axes

     site n.     atom                  positions (alat units)
         1           Fe  tau(   1) = (   0.5000000   0.5000000   0.5000000  )
         2           Fe  tau(   2) = (   0.5000000   1.0000000   1.0000000  )
         3           Fe  tau(   3) = (   1.0000000   0.5000000   1.0000000  )
         4           Fe  tau(   4) = (   1.0000000   1.0000000   0.5000000  )
         5           Fe  tau(   5) = (   0.2500000   0.2500000   0.2500000  )
         6           Fe  tau(   6) = (   0.2500000   0.7500000   0.7500000  )
         7           Fe  tau(   7) = (   0.7500000   0.2500000   0.7500000  )
         8           Fe  tau(   8) = (   0.7500000   0.7500000   0.2500000  )
         9           Fe  tau(   9) = (   0.7500000   0.7500000   0.7500000  )
        10           Fe  tau(  10) = (   0.7500000   0.2500000   0.2500000  )
        11           Fe  tau(  11) = (   0.2500000   0.7500000   0.2500000  )
        12           Fe  tau(  12) = (   0.2500000   0.2500000   0.7500000  )
        13           Fe  tau(  13) = (   0.0000000   0.0000000   0.0000000  )
        14           Fe  tau(  14) = (   0.0000000   0.5000000   0.5000000  )
        15           Si  tau(  15) = (   0.5000000   0.0000000   0.5000000  )
        16           Si  tau(  16) = (   0.5000000   0.5000000   0.0000000  )

     number of k points=    18  Marzari-Vanderbilt smearing, width (Ry)=  0.0050
                       cart. coord. in units 2pi/alat
        k(    1) = (   0.0000000   0.0000000   0.0000000), wk =   0.0080000
        k(    2) = (   0.0000000   0.0000000   0.2000000), wk =   0.0320000
        k(    3) = (   0.0000000   0.0000000   0.4000000), wk =   0.0320000
        k(    4) = (   0.0000000   0.2000000   0.2000000), wk =   0.0320000
        k(    5) = (   0.0000000   0.2000000   0.4000000), wk =   0.0640000
        k(    6) = (   0.0000000   0.4000000   0.4000000), wk =   0.0320000
        k(    7) = (   0.2000000   0.2000000   0.2000000), wk =   0.0640000
        k(    8) = (   0.2000000   0.2000000   0.4000000), wk =   0.1280000
        k(    9) = (   0.2000000   0.4000000   0.4000000), wk =   0.0640000
        k(   10) = (   0.4000000   0.4000000   0.4000000), wk =   0.0640000
        k(   11) = (   0.2000000   0.0000000   0.0000000), wk =   0.0160000
        k(   12) = (   0.4000000   0.0000000   0.0000000), wk =   0.0160000
        k(   13) = (   0.2000000   0.2000000   0.0000000), wk =   0.0640000
        k(   14) = (   0.2000000   0.4000000   0.0000000), wk =   0.0640000
        k(   15) = (   0.4000000   0.0000000   0.2000000), wk =   0.0640000
        k(   16) = (   0.4000000   0.4000000   0.0000000), wk =   0.0640000
        k(   17) = (   0.4000000   0.2000000   0.2000000), wk =   0.0640000
        k(   18) = (   0.4000000   0.4000000   0.2000000), wk =   0.1280000

     Dense  grid:   184739 G-vectors     FFT dimensions: (  72,  72,  72)

     Smooth grid:    65117 G-vectors     FFT dimensions: (  50,  50,  50)

     Estimated max dynamical RAM per process >       1.47 GB

     Check: negative core charge=   -0.000071
     Generating pointlists ...
     new r_m :   0.1786 (alat units)  1.9088 (a.u.) for type    1
     new r_m :   0.1786 (alat units)  1.9088 (a.u.) for type    2

     Initial potential from superposition of free atoms

     starting charge     231.9927, renormalised to     232.0000
     Starting wfcs are  190 randomized atomic wfcs
     Checking if some PAW data can be deallocated... 

     total cpu time spent up to now is       82.7 secs

     per-process dynamical memory:   808.4 Mb

     Self-consistent Calculation

     iteration #  1     ecut=    54.00 Ry     beta= 0.70
     Davidson diagonalization with overlap
     ethr =  1.00E-02,  avg # of iterations =  2.8

     negative rho (up, down):  0.000E+00 3.128E-03

     total cpu time spent up to now is      238.1 secs

     total energy              =   -4623.35676411 Ry
     estimated scf accuracy    <      59.08945046 Ry

     total magnetization       =    46.00 Bohr mag/cell
     absolute magnetization    =    60.78 Bohr mag/cell

     iteration #  2     ecut=    54.00 Ry     beta= 0.70
     Davidson diagonalization with overlap
     ethr =  1.00E-02,  avg # of iterations =  3.5

     negative rho (up, down):  0.000E+00 2.227E-03

     total cpu time spent up to now is      387.1 secs

     total energy              =   -4623.87051796 Ry
     estimated scf accuracy    <      21.48198902 Ry

     total magnetization       =    39.54 Bohr mag/cell
     absolute magnetization    =    44.42 Bohr mag/cell

     iteration #  3     ecut=    54.00 Ry     beta= 0.70
     Davidson diagonalization with overlap
     ethr =  9.26E-03,  avg # of iterations =  5.5

     negative rho (up, down):  0.000E+00 1.836E-03

     total cpu time spent up to now is      574.2 secs

     total energy              =   -4611.27938367 Ry
     estimated scf accuracy    <     191.19213492 Ry

     total magnetization       =    15.98 Bohr mag/cell
     absolute magnetization    =    21.07 Bohr mag/cell

     iteration #  4     ecut=    54.00 Ry     beta= 0.70
     Davidson diagonalization with overlap
     ethr =  9.26E-03,  avg # of iterations =  5.6

     negative rho (up, down):  0.000E+00 1.568E-03

     total cpu time spent up to now is      780.8 secs

     total energy              =   -4624.97827135 Ry
     estimated scf accuracy    <     119.36056655 Ry

     total magnetization       =    17.46 Bohr mag/cell
     absolute magnetization    =    21.04 Bohr mag/cell

     iteration #  5     ecut=    54.00 Ry     beta= 0.70
     Davidson diagonalization with overlap
     ethr =  9.26E-03,  avg # of iterations =  4.1

     negative rho (up, down):  0.000E+00 1.535E-03

     total cpu time spent up to now is      948.9 secs

     total energy              =   -4630.76520128 Ry
     estimated scf accuracy    <      20.54542525 Ry

     total magnetization       =    22.21 Bohr mag/cell
     absolute magnetization    =    24.31 Bohr mag/cell

     iteration #  6     ecut=    54.00 Ry     beta= 0.70
     Davidson diagonalization with overlap
     ethr =  8.86E-03,  avg # of iterations =  1.5

     negative rho (up, down):  0.000E+00 1.391E-03

     total cpu time spent up to now is     1067.8 secs

     total energy              =   -4631.68089578 Ry
     estimated scf accuracy    <      16.69679866 Ry

     total magnetization       =    19.72 Bohr mag/cell
     absolute magnetization    =    22.09 Bohr mag/cell

     iteration #  7     ecut=    54.00 Ry     beta= 0.70
     Davidson diagonalization with overlap
     ethr =  7.20E-03,  avg # of iterations =  1.0

     negative rho (up, down):  0.000E+00 1.288E-03

     total cpu time spent up to now is     1177.6 secs

     total energy              =   -4631.71235196 Ry
     estimated scf accuracy    <      18.76801550 Ry

     total magnetization       =    17.40 Bohr mag/cell
     absolute magnetization    =    20.24 Bohr mag/cell

     iteration #  8     ecut=    54.00 Ry     beta= 0.70
     Davidson diagonalization with overlap
     ethr =  7.20E-03,  avg # of iterations =  1.0

     negative rho (up, down):  0.000E+00 1.248E-03

     total cpu time spent up to now is     1287.2 secs

     total energy              =   -4632.52863469 Ry
     estimated scf accuracy    <       0.48657152 Ry

     total magnetization       =    25.50 Bohr mag/cell
     absolute magnetization    =    27.34 Bohr mag/cell

     iteration #  9     ecut=    54.00 Ry     beta= 0.70
     Davidson diagonalization with overlap
     ethr =  2.10E-04,  avg # of iterations =  2.3

     negative rho (up, down):  0.000E+00 1.265E-03

     total cpu time spent up to now is     1416.2 secs

     total energy              =   -4632.61836568 Ry
     estimated scf accuracy    <       0.26057243 Ry

     total magnetization       =    26.47 Bohr mag/cell
     absolute magnetization    =    28.40 Bohr mag/cell

     iteration # 10     ecut=    54.00 Ry     beta= 0.70
     Davidson diagonalization with overlap
     ethr =  1.12E-04,  avg # of iterations =  1.6

     negative rho (up, down):  0.000E+00 1.352E-03

     total cpu time spent up to now is     1533.0 secs

     total energy              =   -4632.64378433 Ry
     estimated scf accuracy    <       0.09426755 Ry

     total magnetization       =    27.67 Bohr mag/cell
     absolute magnetization    =    29.63 Bohr mag/cell

     iteration # 11     ecut=    54.00 Ry     beta= 0.70
     Davidson diagonalization with overlap
     ethr =  4.06E-05,  avg # of iterations =  3.5

     negative rho (up, down):  0.000E+00 1.571E-03

     total cpu time spent up to now is     1675.2 secs

     total energy              =   -4632.64222905 Ry
     estimated scf accuracy    <       0.64551321 Ry

     total magnetization       =    28.33 Bohr mag/cell
     absolute magnetization    =    30.33 Bohr mag/cell

     iteration # 12     ecut=    54.00 Ry     beta= 0.70
     Davidson diagonalization with overlap
     ethr =  4.06E-05,  avg # of iterations =  2.1

     negative rho (up, down):  0.000E+00 1.615E-03

     total cpu time spent up to now is     1808.8 secs

     total energy              =   -4632.65417831 Ry
     estimated scf accuracy    <       0.50269144 Ry

     total magnetization       =    28.85 Bohr mag/cell
     absolute magnetization    =    30.88 Bohr mag/cell

     iteration # 13     ecut=    54.00 Ry     beta= 0.70
     Davidson diagonalization with overlap
     ethr =  4.06E-05,  avg # of iterations =  2.2

     negative rho (up, down):  0.000E+00 1.601E-03

     total cpu time spent up to now is     1941.6 secs

     total energy              =   -4632.68076495 Ry
     estimated scf accuracy    <       0.12476610 Ry

     total magnetization       =    29.09 Bohr mag/cell
     absolute magnetization    =    31.11 Bohr mag/cell

     iteration # 14     ecut=    54.00 Ry     beta= 0.70
     Davidson diagonalization with overlap
     ethr =  4.06E-05,  avg # of iterations =  1.9

     negative rho (up, down):  0.000E+00 1.616E-03

     total cpu time spent up to now is     2065.7 secs

     total energy              =   -4632.68662149 Ry
     estimated scf accuracy    <       0.02222671 Ry

     total magnetization       =    29.16 Bohr mag/cell
     absolute magnetization    =    31.21 Bohr mag/cell

     iteration # 15     ecut=    54.00 Ry     beta= 0.70
     Davidson diagonalization with overlap
     ethr =  9.58E-06,  avg # of iterations =  3.1

     negative rho (up, down):  0.000E+00 1.653E-03

     total cpu time spent up to now is     2210.8 secs

     total energy              =   -4632.68820497 Ry
     estimated scf accuracy    <       0.03073014 Ry

     total magnetization       =    29.11 Bohr mag/cell
     absolute magnetization    =    31.11 Bohr mag/cell

     iteration # 16     ecut=    54.00 Ry     beta= 0.70
     Davidson diagonalization with overlap
     ethr =  9.58E-06,  avg # of iterations =  2.0

     negative rho (up, down):  0.000E+00 1.704E-03

     total cpu time spent up to now is     2339.1 secs

     total energy              =   -4632.69038976 Ry
     estimated scf accuracy    <       0.04269525 Ry

     total magnetization       =    28.96 Bohr mag/cell
     absolute magnetization    =    31.04 Bohr mag/cell

     iteration # 17     ecut=    54.00 Ry     beta= 0.70
     Davidson diagonalization with overlap
     ethr =  9.58E-06,  avg # of iterations =  2.0

     negative rho (up, down):  0.000E+00 1.697E-03

     total cpu time spent up to now is     2469.3 secs

     total energy              =   -4632.69095048 Ry
     estimated scf accuracy    <       0.03335652 Ry

     total magnetization       =    29.15 Bohr mag/cell
     absolute magnetization    =    31.25 Bohr mag/cell

     iteration # 18     ecut=    54.00 Ry     beta= 0.70
     Davidson diagonalization with overlap
     ethr =  9.58E-06,  avg # of iterations =  1.7

     negative rho (up, down):  0.000E+00 1.670E-03

     total cpu time spent up to now is     2590.5 secs

     total energy              =   -4632.69302669 Ry
     estimated scf accuracy    <       0.00519969 Ry

     total magnetization       =    29.17 Bohr mag/cell
     absolute magnetization    =    31.26 Bohr mag/cell

     iteration # 19     ecut=    54.00 Ry     beta= 0.70
     Davidson diagonalization with overlap
     ethr =  2.24E-06,  avg # of iterations =  2.3

     negative rho (up, down):  0.000E+00 1.661E-03

     total cpu time spent up to now is     2715.7 secs

     total energy              =   -4632.69346533 Ry
     estimated scf accuracy    <       0.00185331 Ry

     total magnetization       =    29.10 Bohr mag/cell
     absolute magnetization    =    31.17 Bohr mag/cell

     iteration # 20     ecut=    54.00 Ry     beta= 0.70
     Davidson diagonalization with overlap
     ethr =  7.99E-07,  avg # of iterations =  1.9

     negative rho (up, down):  0.000E+00 1.646E-03

     total cpu time spent up to now is     2844.3 secs

     total energy              =   -4632.69369106 Ry
     estimated scf accuracy    <       0.00068963 Ry

     total magnetization       =    29.09 Bohr mag/cell
     absolute magnetization    =    31.16 Bohr mag/cell

     iteration # 21     ecut=    54.00 Ry     beta= 0.70
     Davidson diagonalization with overlap
     ethr =  2.97E-07,  avg # of iterations =  2.3

     negative rho (up, down):  0.000E+00 1.639E-03

     total cpu time spent up to now is     2971.6 secs

     total energy              =   -4632.69375714 Ry
     estimated scf accuracy    <       0.00007556 Ry

     total magnetization       =    29.06 Bohr mag/cell
     absolute magnetization    =    31.12 Bohr mag/cell

     iteration # 22     ecut=    54.00 Ry     beta= 0.70
     Davidson diagonalization with overlap
     ethr =  3.26E-08,  avg # of iterations =  5.1

     negative rho (up, down):  0.000E+00 1.636E-03

     total cpu time spent up to now is     3158.6 secs

     total energy              =   -4632.69375441 Ry
     estimated scf accuracy    <       0.00061782 Ry

     total magnetization       =    29.04 Bohr mag/cell
     absolute magnetization    =    31.10 Bohr mag/cell

     iteration # 23     ecut=    54.00 Ry     beta= 0.70
     Davidson diagonalization with overlap
     ethr =  3.26E-08,  avg # of iterations =  2.1

     negative rho (up, down):  0.000E+00 1.633E-03

     total cpu time spent up to now is     3290.9 secs

     total energy              =   -4632.69378620 Ry
     estimated scf accuracy    <       0.00002749 Ry

     total magnetization       =    29.03 Bohr mag/cell
     absolute magnetization    =    31.09 Bohr mag/cell

     iteration # 24     ecut=    54.00 Ry     beta= 0.70
     Davidson diagonalization with overlap
     ethr =  1.19E-08,  avg # of iterations =  2.9

     negative rho (up, down):  0.000E+00 1.629E-03

     total cpu time spent up to now is     3431.5 secs

     total energy              =   -4632.69378802 Ry
     estimated scf accuracy    <       0.00007895 Ry

     total magnetization       =    29.02 Bohr mag/cell
     absolute magnetization    =    31.08 Bohr mag/cell

     iteration # 25     ecut=    54.00 Ry     beta= 0.70
     Davidson diagonalization with overlap
     ethr =  1.19E-08,  avg # of iterations =  1.9

     negative rho (up, down):  0.000E+00 1.626E-03

     total cpu time spent up to now is     3560.1 secs

     total energy              =   -4632.69379345 Ry
     estimated scf accuracy    <       0.00000576 Ry

     total magnetization       =    29.01 Bohr mag/cell
     absolute magnetization    =    31.06 Bohr mag/cell

     iteration # 26     ecut=    54.00 Ry     beta= 0.70
     Davidson diagonalization with overlap
     ethr =  2.48E-09,  avg # of iterations =  3.6

     negative rho (up, down):  0.000E+00 1.626E-03

     total cpu time spent up to now is     3709.3 secs

     total energy              =   -4632.69379509 Ry
     estimated scf accuracy    <       0.00000291 Ry

     total magnetization       =    29.00 Bohr mag/cell
     absolute magnetization    =    31.05 Bohr mag/cell

     iteration # 27     ecut=    54.00 Ry     beta= 0.70
     Davidson diagonalization with overlap
     ethr =  1.25E-09,  avg # of iterations =  2.3

     negative rho (up, down):  0.000E+00 1.626E-03

     total cpu time spent up to now is     3847.7 secs

     total energy              =   -4632.69379524 Ry
     estimated scf accuracy    <       0.00000164 Ry

     total magnetization       =    29.00 Bohr mag/cell
     absolute magnetization    =    31.05 Bohr mag/cell

     iteration # 28     ecut=    54.00 Ry     beta= 0.70
     Davidson diagonalization with overlap
     ethr =  7.07E-10,  avg # of iterations =  3.3

     negative rho (up, down):  0.000E+00 1.626E-03

     total cpu time spent up to now is     3993.0 secs

     total energy              =   -4632.69379516 Ry
     estimated scf accuracy    <       0.00000629 Ry

     total magnetization       =    29.00 Bohr mag/cell
     absolute magnetization    =    31.05 Bohr mag/cell

     iteration # 29     ecut=    54.00 Ry     beta= 0.70
     Davidson diagonalization with overlap
     ethr =  7.07E-10,  avg # of iterations =  2.4

     negative rho (up, down):  0.000E+00 1.626E-03

     total cpu time spent up to now is     4128.7 secs

     total energy              =   -4632.69379565 Ry
     estimated scf accuracy    <       0.00000018 Ry

     total magnetization       =    29.00 Bohr mag/cell
     absolute magnetization    =    31.05 Bohr mag/cell

     iteration # 30     ecut=    54.00 Ry     beta= 0.70
     Davidson diagonalization with overlap
     ethr =  7.61E-11,  avg # of iterations =  4.3

     negative rho (up, down):  0.000E+00 1.626E-03

     total cpu time spent up to now is     4289.2 secs

     total energy              =   -4632.69379566 Ry
     estimated scf accuracy    <       0.00000096 Ry

     total magnetization       =    29.00 Bohr mag/cell
     absolute magnetization    =    31.05 Bohr mag/cell

     iteration # 31     ecut=    54.00 Ry     beta= 0.70
     Davidson diagonalization with overlap
     ethr =  7.61E-11,  avg # of iterations =  2.1

     negative rho (up, down):  0.000E+00 1.626E-03

     total cpu time spent up to now is     4424.2 secs

     total energy              =   -4632.69379571 Ry
     estimated scf accuracy    <       0.00000004 Ry

     total magnetization       =    29.00 Bohr mag/cell
     absolute magnetization    =    31.05 Bohr mag/cell

     iteration # 32     ecut=    54.00 Ry     beta= 0.70
     Davidson diagonalization with overlap
     ethr =  1.71E-11,  avg # of iterations =  2.4

     negative rho (up, down):  0.000E+00 1.626E-03

     total cpu time spent up to now is     4568.4 secs

     total energy              =   -4632.69379571 Ry
     estimated scf accuracy    <       0.00000013 Ry

     total magnetization       =    29.00 Bohr mag/cell
     absolute magnetization    =    31.05 Bohr mag/cell

     iteration # 33     ecut=    54.00 Ry     beta= 0.70
     Davidson diagonalization with overlap
     ethr =  1.71E-11,  avg # of iterations =  2.0

     negative rho (up, down):  0.000E+00 1.626E-03

     total cpu time spent up to now is     4697.2 secs

     total energy              =   -4632.69379572 Ry
     estimated scf accuracy    <       0.00000001 Ry

     total magnetization       =    29.00 Bohr mag/cell
     absolute magnetization    =    31.05 Bohr mag/cell

     iteration # 34     ecut=    54.00 Ry     beta= 0.70
     Davidson diagonalization with overlap
     ethr =  4.37E-12,  avg # of iterations =  2.2

     negative rho (up, down):  0.000E+00 1.626E-03

     Magnetic moment per site  (integrated on atomic sphere of radius R)
     atom   1 (R=0.179)  charge= 14.3944  magn=  2.2882
     atom   2 (R=0.179)  charge= 14.3945  magn=  2.2882
     atom   3 (R=0.179)  charge= 14.3858  magn=  2.4860
     atom   4 (R=0.179)  charge= 14.3858  magn=  2.4860
     atom   5 (R=0.179)  charge= 14.4313  magn=  1.9338
     atom   6 (R=0.179)  charge= 14.4313  magn=  1.9338
     atom   7 (R=0.179)  charge= 14.4313  magn=  1.9338
     atom   8 (R=0.179)  charge= 14.4313  magn=  1.9338
     atom   9 (R=0.179)  charge= 14.4313  magn=  1.9338
     atom  10 (R=0.179)  charge= 14.4313  magn=  1.9338
     atom  11 (R=0.179)  charge= 14.4313  magn=  1.9338
     atom  12 (R=0.179)  charge= 14.4313  magn=  1.9338
     atom  13 (R=0.179)  charge= 14.3780  magn=  2.3925
     atom  14 (R=0.179)  charge= 14.3780  magn=  2.3925
     atom  15 (R=0.179)  charge=  2.0568  magn= -0.0925
     atom  16 (R=0.179)  charge=  2.0568  magn= -0.0925

     total cpu time spent up to now is     4826.4 secs

     End of self-consistent calculation

 ------ SPIN UP ------------


          k = 0.0000 0.0000 0.0000 (  8217 PWs)   bands (ev):

   -70.3867 -70.3832 -70.3318 -70.3268 -70.2942 -70.2927 -69.9363 -69.9363
   -69.9363 -69.9323 -69.9308 -69.9308 -69.9308 -69.9262 -36.5247 -36.5247
   -36.5106 -36.5106 -36.5071 -36.4769 -36.4620 -36.4113 -36.4113 -36.4042
   -36.4042 -36.3577 -36.3316 -36.3316 -36.3116 -36.2983 -36.2983 -36.2877
   -36.0601 -36.0302 -36.0302 -36.0272 -36.0139 -36.0021 -35.9879 -35.9820
   -35.9538 -35.9538 -35.9537 -35.9537 -35.9499 -35.9477 -35.9452 -35.9452
   -35.9448 -35.9448 -35.9425 -35.9273 -35.9213 -35.9169 -35.9156 -35.9156
     7.2392   9.2069  11.7743  12.0491  12.0531  12.0531  12.9505  12.9742
    13.0582  13.0686  13.0686  13.0794  13.1468  13.3986  13.4956  13.8342
    13.8342  14.3621  14.4001  14.4719  14.4719  14.6751  14.6751  14.7891
    14.8470  14.8927  14.8927  14.9172  14.9575  14.9575  14.9689  14.9726
    15.0451  15.2302  15.6811  15.6811  15.8190  15.8584  15.9175  15.9175
    15.9386  15.9386  16.1344  16.1942  16.1942  16.3238  16.5098  16.6095
    16.7263  16.7457  16.7971  16.8494  16.8703  16.8703  16.8715  16.8738
    16.8765  16.9220  16.9523  16.9523  17.0235  17.0235  17.0917  17.1615
    17.1837  17.1837  17.1928  17.1947  17.1947  17.2233  17.2313  17.4204
    17.4770  17.7093  17.9213  17.9213  17.9389  18.1975  18.1975  18.2551
    18.2616  18.2616  18.3013

          k = 0.0000 0.0000 0.2000 (  8173 PWs)   bands (ev):

   -70.3861 -70.3835 -70.3311 -70.3271 -70.2939 -70.2930 -69.9359 -69.9356
   -69.9356 -69.9326 -69.9314 -69.9314 -69.9303 -69.9257 -36.5212 -36.5202
   -36.5090 -36.5084 -36.5039 -36.4794 -36.4532 -36.4149 -36.4088 -36.4083
   -36.3974 -36.3688 -36.3422 -36.3287 -36.3113 -36.3108 -36.3018 -36.2908
   -36.0472 -36.0249 -36.0198 -36.0185 -36.0081 -35.9955 -35.9856 -35.9841
   -35.9614 -35.9570 -35.9554 -35.9535 -35.9531 -35.9492 -35.9488 -35.9482
   -35.9469 -35.9437 -35.9430 -35.9247 -35.9236 -35.9232 -35.9189 -35.9166
     7.4069   9.0355  11.7556  11.8103  12.1695  12.1700  12.9750  13.0115
    13.0146  13.0274  13.1163  13.2073  13.2118  13.4737  13.5737  13.8073
    13.9853  14.3056  14.4293  14.4305  14.4761  14.4782  14.6141  14.7439
    14.7625  14.7981  14.8370  14.8790  14.9849  14.9868  14.9893  15.0683
    15.0780  15.5662  15.5874  15.6138  15.7289  15.7583  15.7919  15.9304
    15.9992  16.0796  16.1668  16.1719  16.1933  16.2383  16.2631  16.2953
    16.4044  16.5460  16.5737  16.6216  16.6807  16.6872  16.7085  16.7818
    16.8022  16.8937  16.9420  16.9715  17.0377  17.0746  17.1688  17.1817
    17.1887  17.2023  17.2249  17.2792  17.3324  17.3904  17.4367  17.4826
    17.6429  17.8182  17.8990  17.9012  17.9498  18.0549  18.0737  18.1258
    18.7524  18.8936  18.9996

          k = 0.0000 0.0000 0.4000 (  8165 PWs)   bands (ev):

   -70.3852 -70.3842 -70.3296 -70.3281 -70.2939 -70.2935 -69.9349 -69.9343
   -69.9343 -69.9335 -69.9327 -69.9327 -69.9288 -69.9272 -36.5137 -36.5108
   -36.5085 -36.5059 -36.4959 -36.4864 -36.4291 -36.4203 -36.4176 -36.3970
   -36.3961 -36.3825 -36.3611 -36.3407 -36.3208 -36.3106 -36.3063 -36.2984
   -36.0168 -36.0113 -35.9990 -35.9962 -35.9955 -35.9934 -35.9861 -35.9840
   -35.9791 -35.9701 -35.9661 -35.9609 -35.9549 -35.9537 -35.9516 -35.9508
   -35.9497 -35.9411 -35.9393 -35.9335 -35.9322 -35.9247 -35.9201 -35.9183
     7.8757   8.5135  11.6229  11.7752  12.4584  12.4784  12.7648  12.8151
    12.9806  13.0119  13.2097  13.3329  13.5987  13.6718  13.7442  13.8359
    14.0295  14.0926  14.2477  14.2822  14.3143  14.4688  14.6908  14.7475
    14.7671  14.7871  14.8231  14.8965  14.9009  15.0186  15.0834  15.1255
    15.2977  15.3425  15.3877  15.4858  15.5668  15.5859  15.6712  15.7376
    15.7415  15.8886  15.8933  16.0041  16.0588  16.1029  16.1219  16.3521
    16.3836  16.4324  16.5191  16.5234  16.5392  16.5918  16.6810  16.7299
    16.8217  16.8486  16.9249  16.9950  17.1570  17.1949  17.1987  17.2216
    17.2590  17.3207  17.3597  17.3674  17.4121  17.4824  17.5593  17.5788
    17.6552  17.7154  17.8247  17.9178  17.9858  17.9959  18.0083  18.0173
    19.9785  20.0023  20.2064

          k = 0.0000 0.2000 0.2000 (  8216 PWs)   bands (ev):

   -70.3859 -70.3839 -70.3306 -70.3275 -70.2941 -70.2935 -69.9359 -69.9353
   -69.9352 -69.9329 -69.9318 -69.9309 -69.9309 -69.9265 -36.5230 -36.5131
   -36.5087 -36.5076 -36.5013 -36.4814 -36.4457 -36.4144 -36.4047 -36.4037
   -36.3980 -36.3774 -36.3389 -36.3388 -36.3145 -36.3130 -36.3098 -36.2934
   -36.0406 -36.0264 -36.0145 -36.0057 -36.0003 -35.9903 -35.9891 -35.9788
   -35.9725 -35.9599 -35.9580 -35.9553 -35.9524 -35.9514 -35.9490 -35.9488
   -35.9475 -35.9437 -35.9427 -35.9293 -35.9272 -35.9217 -35.9202 -35.9176
     7.5677   8.9457  11.4760  11.7785  12.2270  12.2892  12.8290  13.0403
    13.0718  13.1068  13.1588  13.2883  13.3787  13.5530  13.6335  13.8492
    13.9477  14.2672  14.4553  14.4639  14.4915  14.5179  14.5400  14.6787
    14.6843  14.7312  14.7434  14.8551  14.9494  14.9899  15.0496  15.0520
    15.1653  15.4811  15.5086  15.5263  15.6452  15.7744  15.8187  15.8542
    15.9465  15.9995  16.0193  16.1014  16.1571  16.1853  16.2228  16.2566
    16.3973  16.4095  16.4589  16.5333  16.5764  16.6135  16.6763  16.7250
    16.7565  16.8771  16.9421  16.9748  16.9987  17.0449  17.0503  17.1020
    17.1972  17.2104  17.2915  17.2984  17.3662  17.3781  17.4320  17.5099
    17.5530  17.8136  17.9343  18.0379  18.1960  18.4666  18.5621  18.6226
    18.6470  18.8956  19.3850

          k = 0.0000 0.2000 0.4000 (  8200 PWs)   bands (ev):

   -70.3852 -70.3843 -70.3294 -70.3281 -70.2942 -70.2938 -69.9351 -69.9340
   -69.9340 -69.9339 -69.9330 -69.9321 -69.9294 -69.9277 -36.5184 -36.5112
   -36.5067 -36.5063 -36.4946 -36.4869 -36.4255 -36.4113 -36.4075 -36.3994
   -36.3923 -36.3810 -36.3603 -36.3424 -36.3304 -36.3206 -36.3059 -36.2995
   -36.0222 -36.0174 -36.0038 -36.0026 -35.9943 -35.9838 -35.9831 -35.9819
   -35.9728 -35.9653 -35.9633 -35.9597 -35.9570 -35.9549 -35.9539 -35.9487
   -35.9472 -35.9450 -35.9406 -35.9394 -35.9297 -35.9245 -35.9201 -35.9194
     8.0089   8.5705  11.2962  11.5415  12.5069  12.5888  12.7491  12.8978
    13.0709  13.0991  13.2922  13.4708  13.6554  13.7345  13.7384  13.8952
    14.1037  14.1310  14.1439  14.3252  14.3434  14.4550  14.5185  14.6658
    14.6917  14.8337  14.8354  14.9044  14.9651  14.9675  14.9693  15.0672
    15.2083  15.2116  15.3303  15.4187  15.4779  15.5225  15.6034  15.7171
    15.7356  15.7399  15.8330  15.9379  16.0349  16.1045  16.2522  16.3614
    16.3698  16.4817  16.4861  16.5204  16.5238  16.5337  16.6379  16.7586
    16.8206  16.8607  16.9181  16.9627  16.9750  17.0322  17.0799  17.1656
    17.1689  17.1868  17.2021  17.2545  17.2700  17.4053  17.5197  17.5602
    17.7606  17.8363  18.0944  18.0991  18.2357  18.4965  18.6080  18.8367
    19.7098  19.7769  20.4915

          k = 0.0000 0.4000 0.4000 (  8162 PWs)   bands (ev):

   -70.3848 -70.3845 -70.3286 -70.3283 -70.2942 -70.2942 -69.9348 -69.9344
   -69.9334 -69.9329 -69.9324 -69.9308 -69.9308 -69.9289 -36.5203 -36.5170
   -36.5058 -36.5051 -36.4916 -36.4887 -36.4165 -36.4065 -36.3893 -36.3840
   -36.3820 -36.3813 -36.3571 -36.3519 -36.3497 -36.3441 -36.3044 -36.3019
   -36.0252 -36.0192 -36.0167 -36.0129 -35.9917 -35.9821 -35.9718 -35.9677
   -35.9672 -35.9655 -35.9603 -35.9592 -35.9563 -35.9551 -35.9539 -35.9527
   -35.9502 -35.9499 -35.9388 -35.9382 -35.9301 -35.9268 -35.9214 -35.9212
     8.3360   8.5918  10.8823  11.0441  12.8052  12.8362  12.9834  12.9932
    13.1443  13.2162  13.3578  13.5399  13.6353  13.6953  13.9057  14.0499
    14.0791  14.0808  14.2063  14.3510  14.4397  14.4620  14.4792  14.5743
    14.5874  14.6545  14.6833  14.7448  14.7752  14.7815  14.9963  15.0329
    15.0400  15.2379  15.2555  15.2727  15.3265  15.3524  15.3836  15.4623
    15.6731  15.8600  15.9175  15.9179  15.9940  16.0502  16.3946  16.4167
    16.4500  16.4555  16.4599  16.5125  16.5150  16.5470  16.5891  16.7514
    16.7533  16.7979  16.8386  16.8452  16.8897  16.8942  16.8950  16.9006
    17.0470  17.0732  17.2256  17.2547  17.2711  17.3582  17.4181  17.4515
    18.0949  18.1916  18.3293  18.6714  18.6732  19.1933  19.1952  19.4474
    19.7119  19.9591  20.1059

          k = 0.2000 0.2000 0.2000 (  8172 PWs)   bands (ev):

   -70.3856 -70.3837 -70.3306 -70.3274 -70.2940 -70.2934 -69.9354 -69.9353
   -69.9348 -69.9326 -69.9312 -69.9312 -69.9312 -69.9268 -36.5196 -36.5125
   -36.5074 -36.5068 -36.5007 -36.4813 -36.4360 -36.4121 -36.4074 -36.4071
   -36.4026 -36.3720 -36.3396 -36.3368 -36.3166 -36.3144 -36.3132 -36.3064
   -36.0302 -36.0187 -36.0138 -36.0046 -35.9914 -35.9888 -35.9876 -35.9812
   -35.9778 -35.9673 -35.9632 -35.9594 -35.9530 -35.9524 -35.9522 -35.9485
   -35.9462 -35.9452 -35.9398 -35.9289 -35.9286 -35.9226 -35.9195 -35.9168
     7.6821   9.0002  11.2726  11.5731  12.2950  12.3177  12.8662  13.0074
    13.0524  13.2082  13.2266  13.4274  13.4898  13.7107  13.7754  13.8266
    13.9892  14.1698  14.3080  14.4104  14.4916  14.4922  14.5194  14.6023
    14.6349  14.6912  14.7830  14.8069  14.8789  14.9266  15.1411  15.1577
    15.2614  15.2661  15.2729  15.5356  15.5753  15.6652  15.7020  15.7361
    15.8136  15.8628  15.9937  16.0380  16.1319  16.1750  16.2408  16.2737
    16.3284  16.4113  16.4273  16.6019  16.6059  16.6688  16.7085  16.7250
    16.8243  16.8333  16.9376  16.9503  16.9519  17.0053  17.0485  17.0939
    17.1290  17.1435  17.2042  17.2740  17.3183  17.3537  17.4516  17.4871
    17.5884  17.8318  17.9960  18.2044  18.2755  18.4384  18.7127  19.0856
    19.0864  19.1329  20.0851

          k = 0.2000 0.2000 0.4000 (  8176 PWs)   bands (ev):

   -70.3850 -70.3843 -70.3293 -70.3282 -70.2941 -70.2939 -69.9349 -69.9345
   -69.9338 -69.9331 -69.9322 -69.9321 -69.9299 -69.9282 -36.5163 -36.5110
   -36.5072 -36.5056 -36.4940 -36.4866 -36.4213 -36.4085 -36.4082 -36.4005
   -36.3897 -36.3750 -36.3594 -36.3429 -36.3312 -36.3212 -36.3117 -36.3102
   -36.0176 -36.0138 -36.0024 -36.0016 -35.9967 -35.9871 -35.9821 -35.9739
   -35.9722 -35.9692 -35.9677 -35.9636 -35.9632 -35.9552 -35.9526 -35.9508
   -35.9462 -35.9456 -35.9376 -35.9366 -35.9315 -35.9269 -35.9182 -35.9181
     8.1086   8.6458  11.4061  11.5089  12.0781  12.3304  12.7491  13.0214
    13.1727  13.1959  13.4051  13.5819  13.6740  13.7665  13.8442  13.9322
    14.0396  14.1386  14.1641  14.3398  14.3915  14.4845  14.5529  14.6081
    14.6463  14.7258  14.7684  14.8181  14.9278  14.9919  15.0065  15.1288
    15.1363  15.1601  15.2581  15.3477  15.3843  15.4116  15.4398  15.4850
    15.6088  15.6361  15.8545  15.9316  16.1431  16.1459  16.3131  16.3711
    16.3906  16.4335  16.4651  16.5313  16.5693  16.5905  16.6368  16.7325
    16.7786  16.8034  16.8729  16.9036  16.9839  17.0283  17.0328  17.0647
    17.1490  17.1937  17.2130  17.2181  17.3549  17.4073  17.5030  17.5752
    17.7025  17.7898  17.8140  17.9058  18.7441  19.0904  19.1018  19.2625
    19.3622  19.8831  20.4419

          k = 0.2000 0.4000 0.4000 (  8159 PWs)   bands (ev):

   -70.3848 -70.3844 -70.3287 -70.3282 -70.2943 -70.2942 -69.9345 -69.9343
   -69.9332 -69.9328 -69.9324 -69.9310 -69.9309 -69.9294 -36.5175 -36.5151
   -36.5052 -36.5051 -36.4909 -36.4880 -36.4105 -36.3996 -36.3875 -36.3852
   -36.3850 -36.3812 -36.3580 -36.3512 -36.3497 -36.3454 -36.3135 -36.3134
   -36.0188 -36.0130 -36.0117 -36.0079 -35.9897 -35.9813 -35.9763 -35.9660
   -35.9650 -35.9638 -35.9614 -35.9609 -35.9604 -35.9583 -35.9570 -35.9545
   -35.9523 -35.9512 -35.9397 -35.9384 -35.9322 -35.9295 -35.9203 -35.9197
     8.4246   8.6681  11.0165  11.1729  12.2017  12.4572  12.9909  13.1119
    13.1611  13.2135  13.5223  13.6773  13.6839  13.6854  14.0013  14.0574
    14.0978  14.1556  14.2762  14.3663  14.4323  14.5172  14.5250  14.5671
    14.5858  14.6648  14.6652  14.7441  14.7578  14.7968  14.9355  14.9908
    15.0317  15.0375  15.1467  15.1798  15.2572  15.3256  15.3385  15.3631
    15.4776  15.4803  15.8715  15.9215  16.0615  16.1084  16.1310  16.2850
    16.5017  16.5197  16.5343  16.5902  16.6001  16.6433  16.7392  16.7970
    16.8355  16.8772  16.8780  16.8878  16.9125  16.9253  17.0086  17.0140
    17.0245  17.1558  17.1680  17.2112  17.2862  17.3264  17.3412  17.4577
    17.8386  17.9009  17.9660  18.3280  18.3730  19.0295  19.7174  19.8485
    20.0945  20.3119  20.7230

          k = 0.4000 0.4000 0.4000 (  8186 PWs)   bands (ev):

   -70.3847 -70.3844 -70.3288 -70.3283 -70.2945 -70.2944 -69.9343 -69.9338
   -69.9326 -69.9324 -69.9319 -69.9319 -69.9317 -69.9304 -36.5126 -36.5118
   -36.5054 -36.5042 -36.4895 -36.4870 -36.4032 -36.3923 -36.3892 -36.3866
   -36.3743 -36.3742 -36.3588 -36.3497 -36.3487 -36.3472 -36.3404 -36.3346
   -36.0067 -36.0044 -35.9950 -35.9942 -35.9919 -35.9839 -35.9750 -35.9749
   -35.9704 -35.9655 -35.9642 -35.9639 -35.9623 -35.9593 -35.9586 -35.9586
   -35.9541 -35.9516 -35.9409 -35.9408 -35.9357 -35.9344 -35.9187 -35.9177
     8.5901   8.8072  11.3014  11.4317  11.6278  11.9783  12.7947  13.0217
    13.0574  13.1900  13.7522  13.7961  13.8465  13.9583  14.0202  14.1346
    14.2139  14.2594  14.3947  14.4016  14.5110  14.5803  14.5973  14.6145
    14.6212  14.6470  14.6820  14.6876  14.7131  14.7924  14.7934  14.8004
    14.8074  14.8714  14.8886  14.9159  15.0012  15.1592  15.2787  15.2850
    15.2889  15.3039  15.8545  15.9230  15.9698  15.9930  16.0155  16.1622
    16.5856  16.5889  16.6674  16.6786  16.7167  16.7463  16.7919  16.8464
    16.8996  16.9099  16.9170  16.9240  16.9840  17.0233  17.0608  17.0737
    17.1698  17.1819  17.1824  17.1907  17.2775  17.4099  17.4345  17.4875
    17.5272  17.6138  17.8524  17.9168  17.9436  18.4209  20.3414  21.0122
    21.3198  21.3506  22.0340

          k = 0.2000 0.0000 0.0000 (  8173 PWs)   bands (ev):

   -70.3863 -70.3831 -70.3318 -70.3268 -70.2939 -70.2927 -69.9363 -69.9356
   -69.9356 -69.9323 -69.9314 -69.9314 -69.9303 -69.9257 -36.5210 -36.5210
   -36.5073 -36.5073 -36.5072 -36.4770 -36.4492 -36.4143 -36.4143 -36.4093
   -36.4093 -36.3556 -36.3323 -36.3323 -36.3145 -36.3106 -36.2983 -36.2983
   -36.0423 -36.0224 -36.0224 -36.0163 -36.0076 -36.0007 -35.9873 -35.9825
   -35.9606 -35.9606 -35.9591 -35.9591 -35.9540 -35.9512 -35.9502 -35.9447
   -35.9447 -35.9395 -35.9395 -35.9270 -35.9268 -35.9219 -35.9148 -35.9148
     7.3630   9.2472  10.9997  12.0959  12.0959  12.4008  13.0363  13.0456
    13.0666  13.1638  13.1638  13.1982  13.2268  13.5116  13.7817  13.8705
    13.8705  14.1755  14.3629  14.4601  14.4878  14.5151  14.5151  14.6298
    14.7064  14.7064  14.8395  14.8616  14.8616  14.8914  14.9348  14.9348
    15.5549  15.5688  15.6024  15.6024  15.6634  15.6634  15.6964  15.8606
    16.1465  16.1465  16.2408  16.2408  16.2743  16.2765  16.3577  16.3577
    16.3870  16.4749  16.4749  16.5008  16.6473  16.6641  16.6642  16.6734
    16.7714  16.8733  16.8960  16.8960  17.0481  17.1006  17.1698  17.1965
    17.2014  17.2146  17.2276  17.4692  17.4692  17.4799  17.5280  17.5280
    17.5859  17.6998  17.8841  17.8841  18.2166  18.3252  18.3426  18.3426
    18.4068  18.6423  18.6423

          k = 0.4000 0.0000 0.0000 (  8165 PWs)   bands (ev):

   -70.3859 -70.3831 -70.3318 -70.3268 -70.2941 -70.2928 -69.9361 -69.9343
   -69.9343 -69.9327 -69.9327 -69.9322 -69.9288 -69.9272 -36.5143 -36.5143
   -36.5074 -36.5015 -36.5015 -36.4772 -36.4197 -36.4197 -36.4185 -36.4185
   -36.4147 -36.3589 -36.3513 -36.3332 -36.3332 -36.3201 -36.2984 -36.2984
   -36.0063 -36.0050 -36.0050 -35.9983 -35.9912 -35.9886 -35.9859 -35.9840
   -35.9752 -35.9752 -35.9725 -35.9707 -35.9643 -35.9643 -35.9534 -35.9534
   -35.9454 -35.9454 -35.9348 -35.9348 -35.9253 -35.9234 -35.9136 -35.9136
     7.6129   9.3165  10.2228  12.1592  12.1592  12.7629  13.0274  13.1580
    13.1667  13.3981  13.3981  13.4321  13.5491  13.6628  13.6850  13.9310
    13.9310  13.9406  14.0079  14.1259  14.2372  14.6370  14.6370  14.6655
    14.6655  14.7368  14.7781  14.7781  14.8745  14.9151  14.9151  14.9738
    15.1374  15.4793  15.4793  15.4908  15.5624  15.5624  15.6256  15.6256
    15.8285  15.8285  15.8847  15.9477  16.0390  16.2836  16.4134  16.4147
    16.4495  16.5303  16.5389  16.5389  16.5407  16.5407  16.5505  16.7540
    16.8024  16.8729  17.0251  17.0829  17.0904  17.0904  17.1579  17.1579
    17.2061  17.2180  17.2789  17.4029  17.5622  17.5857  17.5857  17.5977
    17.6625  17.7570  17.8605  17.8605  17.9716  18.3023  18.4199  18.4199
    19.7166  19.7871  19.7871

          k = 0.2000 0.2000 0.0000 (  8216 PWs)   bands (ev):

   -70.3860 -70.3835 -70.3312 -70.3272 -70.2941 -70.2932 -69.9360 -69.9356
   -69.9352 -69.9325 -69.9318 -69.9309 -69.9309 -69.9265 -36.5187 -36.5174
   -36.5080 -36.5061 -36.5036 -36.4794 -36.4412 -36.4165 -36.4123 -36.4097
   -36.4037 -36.3654 -36.3395 -36.3293 -36.3157 -36.3140 -36.3050 -36.3019
   -36.0347 -36.0213 -36.0202 -36.0028 -36.0007 -35.9940 -35.9864 -35.9850
   -35.9678 -35.9646 -35.9638 -35.9601 -35.9573 -35.9508 -35.9489 -35.9461
   -35.9456 -35.9437 -35.9388 -35.9277 -35.9262 -35.9213 -35.9193 -35.9156
     7.5258   9.0845  11.1401  11.8392  12.2228  12.4205  12.8003  13.1174
    13.1285  13.1529  13.2013  13.3004  13.3105  13.6322  13.6917  13.8772
    14.0166  14.2016  14.2479  14.4276  14.4725  14.5003  14.5220  14.6143
    14.6244  14.6835  14.7745  14.8334  14.8934  14.9106  15.0462  15.2583
    15.3291  15.3795  15.3887  15.5707  15.6837  15.8134  15.8688  15.8838
    15.9398  15.9497  15.9701  16.0609  16.1384  16.2330  16.2452  16.2799
    16.2830  16.3270  16.4741  16.6387  16.6424  16.6606  16.6655  16.6901
    16.7538  16.9060  16.9131  16.9684  16.9818  17.0641  17.1021  17.1159
    17.1349  17.2270  17.3209  17.3432  17.3625  17.3956  17.5125  17.5210
    17.6538  17.7201  17.8119  18.0925  18.1462  18.4912  18.5475  18.6535
    18.7118  18.9632  19.3223

          k = 0.2000 0.4000 0.0000 (  8200 PWs)   bands (ev):

   -70.3851 -70.3843 -70.3297 -70.3283 -70.2940 -70.2937 -69.9349 -69.9348
   -69.9339 -69.9332 -69.9331 -69.9321 -69.9294 -69.9277 -36.5136 -36.5099
   -36.5095 -36.5053 -36.4955 -36.4863 -36.4232 -36.4197 -36.4179 -36.4032
   -36.3918 -36.3705 -36.3607 -36.3413 -36.3212 -36.3114 -36.3108 -36.3081
   -36.0146 -36.0111 -36.0072 -35.9974 -35.9887 -35.9885 -35.9867 -35.9826
   -35.9806 -35.9721 -35.9701 -35.9677 -35.9627 -35.9550 -35.9494 -35.9485
   -35.9429 -35.9402 -35.9376 -35.9337 -35.9334 -35.9257 -35.9180 -35.9168
     7.9790   8.5900  11.4836  11.6765  12.3285  12.4109  12.5458  12.8942
    13.1309  13.2239  13.3332  13.4606  13.6534  13.7300  13.7764  13.8727
    13.9724  14.0771  14.3045  14.3196  14.3574  14.5204  14.5477  14.5867
    14.6244  14.6838  14.8462  14.8480  14.9093  15.1075  15.1385  15.1988
    15.2615  15.2710  15.2967  15.3756  15.4165  15.4956  15.5239  15.5775
    15.5879  15.8346  15.9161  15.9701  16.1474  16.2167  16.2699  16.3392
    16.3954  16.4568  16.4673  16.4731  16.4968  16.5469  16.6209  16.7149
    16.7549  16.8181  16.8934  16.9026  17.0287  17.0704  17.0813  17.0843
    17.0984  17.1853  17.2068  17.2495  17.4052  17.4883  17.6203  17.6588
    17.7003  17.7430  17.7951  18.1590  18.2434  18.5188  18.8293  18.8706
    19.7764  19.9596  20.2800

          k = 0.4000 0.0000 0.2000 (  8200 PWs)   bands (ev):

   -70.3857 -70.3835 -70.3313 -70.3272 -70.2941 -70.2932 -69.9360 -69.9343
   -69.9339 -69.9332 -69.9326 -69.9321 -69.9294 -69.9277 -36.5144 -36.5125
   -36.5065 -36.5021 -36.5020 -36.4794 -36.4232 -36.4194 -36.4184 -36.4125
   -36.3990 -36.3616 -36.3525 -36.3329 -36.3301 -36.3216 -36.3092 -36.3020
   -36.0089 -36.0083 -36.0065 -35.9915 -35.9885 -35.9880 -35.9874 -35.9866
   -35.9822 -35.9792 -35.9764 -35.9634 -35.9610 -35.9607 -35.9569 -35.9491
   -35.9446 -35.9420 -35.9387 -35.9332 -35.9275 -35.9187 -35.9182 -35.9141
     7.7632   9.1699  10.4052  12.0077  12.3048  12.5662  12.7956  13.1674
    13.2355  13.4302  13.4991  13.5031  13.5334  13.5773  13.7769  13.8568
    13.9436  13.9852  14.0597  14.2263  14.4004  14.4707  14.6161  14.6398
    14.6570  14.7077  14.7648  14.7962  14.8162  14.8491  15.0453  15.0553
    15.1359  15.2705  15.4375  15.4787  15.5197  15.5447  15.5858  15.5907
    15.6271  15.8036  15.8561  15.9065  16.1143  16.2018  16.2533  16.3355
    16.3705  16.4626  16.5361  16.5370  16.5445  16.6281  16.7413  16.7515
    16.7834  16.8612  16.8781  16.9848  16.9927  16.9978  17.0386  17.0727
    17.1030  17.1819  17.1949  17.2349  17.4895  17.4952  17.5386  17.6475
    17.6839  17.7917  17.8287  18.0961  18.1985  18.7974  18.8637  19.4771
    19.5892  19.7874  20.0143

          k = 0.4000 0.4000 0.0000 (  8162 PWs)   bands (ev):

   -70.3849 -70.3841 -70.3297 -70.3282 -70.2940 -70.2937 -69.9352 -69.9346
   -69.9331 -69.9327 -69.9324 -69.9308 -69.9308 -69.9289 -36.5135 -36.5105
   -36.5083 -36.5043 -36.4950 -36.4860 -36.4188 -36.4184 -36.4174 -36.4074
   -36.3730 -36.3655 -36.3454 -36.3451 -36.3294 -36.3253 -36.3218 -36.3111
   -36.0090 -36.0089 -36.0044 -35.9982 -35.9968 -35.9964 -35.9901 -35.9894
   -35.9732 -35.9713 -35.9703 -35.9644 -35.9638 -35.9591 -35.9520 -35.9479
   -35.9415 -35.9401 -35.9363 -35.9350 -35.9308 -35.9265 -35.9149 -35.9145
     8.1786   8.7298  10.9240  11.6650  12.1175  12.4978  12.6996  13.1661
    13.1934  13.3365  13.5773  13.6051  13.6670  13.8235  13.9270  13.9393
    13.9838  14.0094  14.1070  14.1537  14.3777  14.4922  14.5012  14.5695
    14.5989  14.6239  14.6821  14.7472  14.9074  14.9173  15.0991  15.1603
    15.1959  15.2627  15.2686  15.2919  15.3381  15.3631  15.3954  15.4494
    15.4682  15.4945  15.8431  15.9934  16.1412  16.2142  16.2513  16.3369
    16.3796  16.4548  16.5191  16.5746  16.5846  16.6434  16.6682  16.6893
    16.6906  16.6924  16.7622  16.7834  16.8805  16.9159  16.9339  16.9671
    17.0130  17.0234  17.1772  17.2529  17.2592  17.3651  17.7073  17.7298
    17.7553  17.8014  18.3238  18.6290  18.9308  18.9474  19.1392  19.5663
    19.8143  20.2194  20.2666

          k = 0.4000 0.2000 0.2000 (  8176 PWs)   bands (ev):

   -70.3855 -70.3836 -70.3307 -70.3273 -70.2942 -70.2934 -69.9357 -69.9342
   -69.9338 -69.9325 -69.9323 -69.9321 -69.9299 -69.9282 -36.5137 -36.5115
   -36.5067 -36.5048 -36.4984 -36.4811 -36.4247 -36.4117 -36.4111 -36.4109
   -36.3927 -36.3648 -36.3489 -36.3406 -36.3308 -36.3215 -36.3144 -36.3118
   -36.0092 -36.0089 -36.0015 -35.9968 -35.9937 -35.9868 -35.9856 -35.9849
   -35.9802 -35.9737 -35.9704 -35.9666 -35.9655 -35.9551 -35.9518 -35.9514
   -35.9496 -35.9477 -35.9344 -35.9325 -35.9301 -35.9222 -35.9169 -35.9154
     7.9078   9.0956  10.5844  11.7547  12.4274  12.5932  12.6774  12.9335
    13.1162  13.4051  13.4475  13.6131  13.6893  13.6922  13.7145  13.8659
    14.0172  14.0575  14.2087  14.2685  14.3664  14.5548  14.6343  14.6631
    14.6643  14.7020  14.7436  14.7845  14.7927  14.7957  14.9898  15.0051
    15.1496  15.2704  15.2845  15.3404  15.3439  15.4654  15.4788  15.5320
    15.5625  15.7070  15.8481  15.8738  16.0931  16.1880  16.3227  16.3628
    16.4087  16.4117  16.4912  16.5125  16.6151  16.6458  16.7169  16.7537
    16.7791  16.8424  16.8748  16.9139  16.9579  16.9607  17.0099  17.0197
    17.0650  17.2099  17.3079  17.3587  17.4146  17.4377  17.5342  17.5379
    17.5634  17.6623  17.8818  17.9635  18.4845  18.9110  19.4351  19.4778
    19.8182  20.1815  20.2292

          k = 0.4000 0.4000 0.2000 (  8159 PWs)   bands (ev):

   -70.3848 -70.3841 -70.3294 -70.3281 -70.2942 -70.2939 -69.9349 -69.9343
   -69.9328 -69.9327 -69.9325 -69.9309 -69.9309 -69.9294 -36.5130 -36.5107
   -36.5077 -36.5046 -36.4930 -36.4861 -36.4169 -36.4099 -36.4059 -36.4022
   -36.3729 -36.3667 -36.3508 -36.3456 -36.3343 -36.3340 -36.3251 -36.3221
   -36.0090 -36.0063 -36.0006 -35.9987 -35.9982 -35.9878 -35.9846 -35.9812
   -35.9762 -35.9699 -35.9658 -35.9644 -35.9628 -35.9611 -35.9521 -35.9519
   -35.9483 -35.9461 -35.9350 -35.9342 -35.9334 -35.9308 -35.9161 -35.9156
     8.2996   8.7829  11.0881  11.6422  11.8903  12.1332  12.8476  13.1122
    13.1678  13.1998  13.6311  13.6608  13.7286  13.9150  13.9369  14.0262
    14.0766  14.0799  14.2077  14.2224  14.4791  14.4924  14.5159  14.6039
    14.6299  14.6335  14.6529  14.7435  14.8397  14.9328  15.0214  15.0434
    15.0502  15.0727  15.1123  15.1165  15.2178  15.3229  15.3322  15.3792
    15.4018  15.4533  15.8337  15.9723  16.0484  16.0921  16.1160  16.3857
    16.4467  16.4899  16.5448  16.5930  16.6719  16.6890  16.7525  16.7710
    16.7713  16.7855  16.8622  16.8835  16.9328  16.9352  16.9812  17.0088
    17.0201  17.0889  17.1717  17.2627  17.3056  17.3967  17.5206  17.5876
    17.5963  17.6320  17.9523  18.4041  18.4138  19.0574  19.3072  20.0145
    20.3332  20.6991  20.7765

 ------ SPIN DOWN ----------


          k = 0.0000 0.0000 0.0000 (  8217 PWs)   bands (ev):

   -67.7121 -67.6766 -67.6523 -67.6523 -67.6523 -67.6463 -67.6463 -67.6463
   -67.6409 -67.6355 -67.4627 -67.4556 -67.3814 -67.3762 -33.9896 -33.9768
   -33.9768 -33.9751 -33.9751 -33.8801 -33.8535 -33.8326 -33.8171 -33.8060
   -33.8060 -33.8026 -33.8005 -33.7859 -33.7859 -33.7586 -33.7586 -33.7498
   -33.7498 -33.7430 -33.7225 -33.7188 -33.7186 -33.7186 -33.7184 -33.7120
   -33.7115 -33.7061 -33.7061 -33.6436 -33.5620 -33.5186 -33.5186 -33.5035
   -33.4815 -33.4815 -33.4805 -33.4745 -33.4330 -33.4330 -33.4092 -33.4092
     7.2618   9.2922  12.1921  12.3510  12.3510  12.3598  13.7665  14.0449
    14.0879  14.2314  14.2692  14.2692  14.2794  14.5734  14.5734  14.9001
    14.9679  15.1712  15.4352  15.9847  16.0306  16.0306  16.2491  16.3208
    16.3208  16.3823  16.3823  16.5504  16.8360  16.8360  16.8513  16.9577
    16.9577  17.0491  17.0491  17.3319  17.5473  17.5473  17.5792  17.6743
    17.7180  17.7751  17.7781  17.7787  17.7787  17.8039  17.8039  17.8565
    18.1300  18.1300  18.3265  18.6306  18.6646  18.6835  19.0670  19.0670
    19.1086  19.1287  19.1287  19.1996  19.3442  19.4606  19.5171  19.6092
    19.6092  19.6177  19.6194  19.6306  19.6570  19.6668  19.8154  19.8615
    19.9091  19.9550  20.0493  20.0513  20.0513  20.1873  20.1900  20.1900
    20.2349  20.2349  20.3748

          k = 0.0000 0.0000 0.2000 (  8173 PWs)   bands (ev):

   -67.7095 -67.6819 -67.6517 -67.6517 -67.6489 -67.6470 -67.6470 -67.6457
   -67.6408 -67.6363 -67.4620 -67.4561 -67.3809 -67.3765 -33.9767 -33.9706
   -33.9691 -33.9687 -33.9638 -33.8715 -33.8565 -33.8483 -33.8459 -33.8307
   -33.8069 -33.8054 -33.8028 -33.8004 -33.7853 -33.7789 -33.7652 -33.7611
   -33.7492 -33.7436 -33.7278 -33.7255 -33.7189 -33.7180 -33.7124 -33.6972
   -33.6934 -33.6889 -33.6680 -33.6357 -33.5538 -33.5191 -33.5170 -33.5024
   -33.4881 -33.4880 -33.4862 -33.4781 -33.4315 -33.4306 -33.4127 -33.4113
     7.4277   9.0908  12.0909  12.2256  12.4890  12.4972  13.9174  13.9303
    13.9700  13.9919  14.0859  14.4297  14.4577  14.4949  14.9204  15.0291
    15.1345  15.3340  15.4836  15.9125  16.0016  16.1318  16.1984  16.3815
    16.3824  16.3895  16.3913  16.4027  16.4759  16.6305  16.6444  16.7110
    16.8255  16.9876  17.0039  17.3831  17.4070  17.4322  17.4570  17.4707
    17.6236  17.6554  17.6815  17.7431  17.8334  17.9288  17.9551  18.0612
    18.1443  18.2941  18.4503  18.4698  18.5405  18.9269  19.0201  19.0851
    19.1052  19.1985  19.2372  19.2766  19.3140  19.5169  19.5990  19.6138
    19.6161  19.6297  19.6489  19.6614  19.6712  19.8017  19.8263  19.8554
    19.9057  19.9960  20.0116  20.0234  20.0346  20.0935  20.1260  20.1533
    20.4637  20.5623  20.6474

          k = 0.0000 0.0000 0.4000 (  8165 PWs)   bands (ev):

   -67.7021 -67.6920 -67.6502 -67.6502 -67.6485 -67.6484 -67.6442 -67.6433
   -67.6424 -67.6389 -67.4602 -67.4579 -67.3796 -67.3779 -33.9578 -33.9571
   -33.9478 -33.9408 -33.9397 -33.8911 -33.8790 -33.8670 -33.8632 -33.8555
   -33.8484 -33.8239 -33.8044 -33.8034 -33.7927 -33.7832 -33.7644 -33.7604
   -33.7475 -33.7453 -33.7431 -33.7375 -33.7162 -33.7141 -33.6950 -33.6861
   -33.6727 -33.6677 -33.6321 -33.6250 -33.5342 -33.5164 -33.5104 -33.5088
   -33.5037 -33.4980 -33.4969 -33.4870 -33.4271 -33.4243 -33.4201 -33.4169
     7.8928   8.5348  12.0097  12.1821  12.8690  12.8788  13.3900  13.4162
    13.7402  13.8812  14.3109  14.4469  14.8682  15.0033  15.2134  15.3568
    15.4188  15.4462  15.5100  15.5503  15.8143  15.8984  16.1324  16.2082
    16.2656  16.2894  16.3930  16.4933  16.5380  16.5437  16.5469  16.5829
    16.8048  16.8192  16.9504  17.0674  17.0931  17.1040  17.2266  17.2272
    17.2732  17.3025  17.6807  17.7099  17.7698  17.9450  18.2801  18.3542
    18.5157  18.5570  18.6621  18.7409  18.7974  18.8507  18.9852  19.0121
    19.0852  19.1709  19.3077  19.3987  19.4179  19.5151  19.5235  19.5666
    19.6257  19.6385  19.6414  19.6607  19.6940  19.7143  19.8686  19.8879
    19.9108  19.9161  19.9948  20.0117  20.0422  20.0599  20.0743  20.0865
    21.2675  21.3649  21.5073

          k = 0.0000 0.2000 0.2000 (  8216 PWs)   bands (ev):

   -67.7071 -67.6851 -67.6534 -67.6512 -67.6480 -67.6464 -67.6464 -67.6454
   -67.6416 -67.6366 -67.4616 -67.4567 -67.3806 -67.3770 -33.9715 -33.9696
   -33.9651 -33.9563 -33.9511 -33.8659 -33.8636 -33.8615 -33.8603 -33.8415
   -33.8132 -33.8095 -33.8043 -33.7795 -33.7744 -33.7727 -33.7683 -33.7669
   -33.7631 -33.7513 -33.7445 -33.7250 -33.7204 -33.7200 -33.7198 -33.7075
   -33.6788 -33.6774 -33.6491 -33.6303 -33.5466 -33.5176 -33.5135 -33.5011
   -33.5010 -33.4931 -33.4814 -33.4811 -33.4335 -33.4257 -33.4181 -33.4104
     7.5864   8.9844  11.6918  12.1673  12.6292  12.7702  13.4353  13.8765
    14.0546  14.2994  14.3841  14.4009  14.4626  14.6365  14.8003  15.2160
    15.2231  15.4594  15.5413  15.9073  16.0355  16.0610  16.1787  16.2170
    16.2854  16.2947  16.3708  16.3724  16.4603  16.5194  16.5653  16.6501
    16.7902  16.8973  16.9983  17.1610  17.2237  17.3163  17.3539  17.4597
    17.4956  17.5279  17.5673  17.6504  18.0019  18.0266  18.0784  18.1822
    18.2192  18.2595  18.3480  18.5370  18.6283  19.0208  19.0442  19.1027
    19.2195  19.2600  19.2732  19.3338  19.3458  19.5212  19.5387  19.5535
    19.6167  19.6514  19.6544  19.6677  19.6736  19.6772  19.7505  19.8015
    19.9012  19.9338  19.9550  20.0874  20.2366  20.2583  20.3144  20.4498
    20.4574  20.4640  21.0368

          k = 0.0000 0.2000 0.4000 (  8200 PWs)   bands (ev):

   -67.7008 -67.6925 -67.6528 -67.6506 -67.6497 -67.6478 -67.6448 -67.6429
   -67.6409 -67.6381 -67.4600 -67.4582 -67.3794 -67.3781 -33.9616 -33.9598
   -33.9456 -33.9444 -33.9333 -33.8913 -33.8794 -33.8699 -33.8519 -33.8425
   -33.8214 -33.8172 -33.8100 -33.8075 -33.7909 -33.7836 -33.7636 -33.7588
   -33.7503 -33.7470 -33.7461 -33.7398 -33.7264 -33.7233 -33.7073 -33.6992
   -33.6784 -33.6764 -33.6269 -33.6225 -33.5291 -33.5171 -33.5132 -33.5085
   -33.5003 -33.4963 -33.4886 -33.4864 -33.4317 -33.4260 -33.4193 -33.4135
     8.0227   8.5858  11.5337  11.8447  12.9899  13.1378  13.3121  13.4706
    14.0074  14.0657  14.4838  14.5676  14.8476  14.9924  15.0158  15.3850
    15.4366  15.5025  15.6183  15.6378  15.7362  15.8886  16.0862  16.1655
    16.2654  16.2889  16.3444  16.3844  16.4359  16.4433  16.4872  16.7190
    16.7267  16.7725  16.8670  16.9201  16.9982  17.0246  17.1175  17.1404
    17.2315  17.3926  17.6759  17.7391  17.7513  17.9404  18.1966  18.2746
    18.4529  18.6813  18.7476  18.7657  18.8091  18.9278  18.9304  19.0488
    19.0915  19.1462  19.2623  19.2845  19.4202  19.4718  19.5369  19.5834
    19.6102  19.6121  19.6206  19.6527  19.6745  19.6931  19.7749  19.8265
    19.8637  20.0212  20.0355  20.1212  20.1898  20.3459  20.3551  20.5030
    21.2134  21.2190  21.7729

          k = 0.0000 0.4000 0.4000 (  8162 PWs)   bands (ev):

   -67.6975 -67.6942 -67.6548 -67.6536 -67.6481 -67.6463 -67.6463 -67.6443
   -67.6381 -67.6371 -67.4594 -67.4586 -67.3790 -67.3784 -33.9611 -33.9600
   -33.9541 -33.9529 -33.9152 -33.8979 -33.8698 -33.8597 -33.8280 -33.8183
   -33.8160 -33.8158 -33.8143 -33.7896 -33.7870 -33.7790 -33.7627 -33.7621
   -33.7532 -33.7526 -33.7492 -33.7452 -33.7426 -33.7419 -33.7215 -33.7096
   -33.7011 -33.6989 -33.6202 -33.6191 -33.5182 -33.5163 -33.5161 -33.5101
   -33.4949 -33.4924 -33.4861 -33.4803 -33.4345 -33.4324 -33.4146 -33.4124
     8.3411   8.5946  11.0670  11.2498  13.2573  13.4766  13.5699  13.5799
    14.1067  14.2378  14.3984  14.4270  14.9646  14.9828  15.0680  15.3041
    15.5220  15.5909  15.7101  15.7953  15.7979  15.9693  16.0104  16.0169
    16.1112  16.1851  16.2631  16.2814  16.3172  16.3854  16.4703  16.6417
    16.6744  16.6947  16.7151  16.7587  16.7702  16.9127  16.9673  17.0218
    17.3411  17.5407  17.7089  17.7461  17.8173  17.8449  18.0572  18.1754
    18.3677  18.5205  18.6639  18.8116  18.9627  19.0134  19.0499  19.0563
    19.0774  19.1142  19.1856  19.1867  19.4887  19.5044  19.5062  19.5215
    19.5480  19.5884  19.5896  19.6153  19.6255  19.6489  19.7267  19.8123
    20.1176  20.2128  20.2330  20.2894  20.4870  20.8484  20.9088  21.0609
    21.0875  21.2520  21.5820

          k = 0.2000 0.2000 0.2000 (  8172 PWs)   bands (ev):

   -67.7054 -67.6846 -67.6566 -67.6527 -67.6485 -67.6471 -67.6469 -67.6435
   -67.6420 -67.6329 -67.4615 -67.4567 -67.3805 -67.3769 -33.9650 -33.9617
   -33.9603 -33.9492 -33.9388 -33.8811 -33.8691 -33.8650 -33.8500 -33.8365
   -33.8265 -33.8110 -33.8092 -33.7992 -33.7818 -33.7793 -33.7696 -33.7674
   -33.7639 -33.7512 -33.7415 -33.7362 -33.7256 -33.7211 -33.7052 -33.6860
   -33.6770 -33.6753 -33.6509 -33.6258 -33.5463 -33.5183 -33.5101 -33.5078
   -33.4958 -33.4938 -33.4855 -33.4818 -33.4330 -33.4255 -33.4175 -33.4102
     7.6952   9.0353  11.4714  11.8052  12.8157  12.8396  13.4624  13.8305
    13.8450  14.4170  14.5965  14.6293  14.6465  14.7508  14.8238  15.1927
    15.2755  15.3631  15.5657  15.8123  16.0791  16.0922  16.1503  16.1664
    16.2207  16.2408  16.3165  16.3528  16.3737  16.4456  16.6545  16.7319
    16.7870  16.8311  16.8876  16.9787  17.0759  17.1659  17.2237  17.2517
    17.3023  17.4648  17.5065  17.7437  17.8143  18.0008  18.1357  18.2866
    18.4425  18.4794  18.5116  18.6654  18.7413  18.9912  19.0446  19.0463
    19.0698  19.2444  19.3258  19.3389  19.3850  19.4123  19.4538  19.5364
    19.5558  19.5989  19.6064  19.6218  19.7207  19.7440  19.8278  19.8305
    19.8759  19.9635  19.9763  20.0941  20.1996  20.3415  20.4464  20.6498
    20.7073  20.7607  21.4981

          k = 0.2000 0.2000 0.4000 (  8176 PWs)   bands (ev):

   -67.6996 -67.6918 -67.6543 -67.6527 -67.6498 -67.6489 -67.6457 -67.6437
   -67.6389 -67.6350 -67.4600 -67.4581 -67.3794 -67.3780 -33.9574 -33.9556
   -33.9435 -33.9421 -33.9248 -33.8951 -33.8700 -33.8653 -33.8440 -33.8417
   -33.8327 -33.8258 -33.8093 -33.8071 -33.7876 -33.7790 -33.7745 -33.7617
   -33.7584 -33.7521 -33.7496 -33.7447 -33.7381 -33.7296 -33.7037 -33.6888
   -33.6697 -33.6685 -33.6377 -33.6271 -33.5277 -33.5161 -33.5094 -33.5071
   -33.4986 -33.4971 -33.4888 -33.4883 -33.4310 -33.4251 -33.4190 -33.4133
     8.1170   8.6564  11.6455  11.7440  12.4128  12.7030  13.4705  13.8345
    13.9841  14.1205  14.7122  14.7393  14.9238  14.9346  15.1584  15.3645
    15.4692  15.4844  15.5834  15.7482  15.8644  15.9140  16.0990  16.1327
    16.1599  16.2812  16.2843  16.3238  16.3445  16.5456  16.5588  16.6172
    16.6676  16.7653  16.7979  16.8281  16.9079  16.9517  16.9615  17.1007
    17.1610  17.2391  17.5382  17.7243  17.8639  17.9150  18.0850  18.1489
    18.5566  18.7051  18.7921  18.8020  18.8266  18.9767  19.0273  19.0959
    19.1223  19.1926  19.2942  19.3808  19.3845  19.4432  19.4820  19.5324
    19.5679  19.5805  19.6001  19.6389  19.6916  19.7123  19.7303  19.7771
    19.8291  19.8361  19.8891  19.9691  20.4498  20.7400  20.8067  20.8469
    20.8967  21.4193  21.7299

          k = 0.2000 0.4000 0.4000 (  8159 PWs)   bands (ev):

   -67.6966 -67.6934 -67.6541 -67.6537 -67.6501 -67.6489 -67.6469 -67.6454
   -67.6361 -67.6348 -67.4593 -67.4586 -67.3789 -67.3784 -33.9529 -33.9520
   -33.9484 -33.9483 -33.9120 -33.8939 -33.8569 -33.8504 -33.8299 -33.8270
   -33.8183 -33.8178 -33.8145 -33.8006 -33.7985 -33.7911 -33.7870 -33.7749
   -33.7612 -33.7607 -33.7560 -33.7515 -33.7507 -33.7453 -33.7028 -33.6965
   -33.6769 -33.6748 -33.6238 -33.6201 -33.5189 -33.5167 -33.5141 -33.5105
   -33.4955 -33.4929 -33.4883 -33.4846 -33.4333 -33.4311 -33.4144 -33.4122
     8.4232   8.6643  11.2059  11.3738  12.4818  12.7885  13.7011  13.8978
    13.9180  14.2463  14.4721  14.7291  15.0611  15.1014  15.3253  15.5033
    15.5720  15.6135  15.7125  15.8982  15.9260  15.9563  16.0561  16.0804
    16.1246  16.2065  16.2602  16.2773  16.3104  16.4010  16.4180  16.5334
    16.5491  16.6312  16.6844  16.7197  16.7682  16.8125  16.8983  16.9683
    17.1155  17.1565  17.5912  17.7192  17.7434  17.7940  17.8955  17.9158
    18.6730  18.7640  18.9140  19.0355  19.0487  19.0859  19.0861  19.1062
    19.1236  19.2021  19.2324  19.2974  19.4230  19.4560  19.4579  19.4651
    19.5095  19.5218  19.5374  19.5471  19.6204  19.6420  19.6871  19.7713
    19.8542  19.9145  19.9969  20.1726  20.2075  20.7232  21.2264  21.2659
    21.5020  21.5949  22.0597

          k = 0.4000 0.4000 0.4000 (  8186 PWs)   bands (ev):

   -67.6952 -67.6924 -67.6562 -67.6523 -67.6523 -67.6498 -67.6489 -67.6474
   -67.6340 -67.6323 -67.4593 -67.4586 -67.3790 -67.3784 -33.9400 -33.9381
   -33.9361 -33.9322 -33.9038 -33.8901 -33.8414 -33.8404 -33.8356 -33.8294
   -33.8287 -33.8241 -33.8195 -33.8183 -33.8094 -33.8081 -33.8043 -33.8038
   -33.7777 -33.7710 -33.7552 -33.7549 -33.7544 -33.7483 -33.6890 -33.6855
   -33.6507 -33.6460 -33.6303 -33.6209 -33.5187 -33.5177 -33.5119 -33.5107
   -33.4964 -33.4937 -33.4929 -33.4925 -33.4313 -33.4291 -33.4141 -33.4119
     8.5742   8.7897  11.5106  11.6220  11.8568  12.2330  13.1066  13.4459
    14.0384  14.2605  14.9661  15.0744  15.2808  15.4232  15.6826  15.6835
    15.7122  15.7326  15.8570  15.8945  16.0501  16.1127  16.1256  16.1427
    16.2044  16.2232  16.2233  16.2824  16.3142  16.3260  16.3309  16.3922
    16.4452  16.4645  16.4878  16.5681  16.5918  16.7377  16.7401  16.7528
    16.8070  16.8165  17.5293  17.5644  17.6045  17.6766  17.6800  17.6998
    19.0424  19.0847  19.1363  19.1402  19.1702  19.2463  19.2576  19.2872
    19.3040  19.3319  19.3464  19.3751  19.3963  19.3970  19.4200  19.4270
    19.4458  19.4633  19.4752  19.5255  19.5578  19.5922  19.6054  19.6360
    19.6531  19.6706  19.8154  19.8208  19.8810  20.2563  21.6600  22.2843
    22.5032  22.5391  22.7936

          k = 0.2000 0.0000 0.0000 (  8173 PWs)   bands (ev):

   -67.7102 -67.6766 -67.6586 -67.6517 -67.6517 -67.6470 -67.6470 -67.6458
   -67.6408 -67.6311 -67.4628 -67.4555 -67.3814 -67.3760 -33.9772 -33.9668
   -33.9668 -33.9646 -33.9646 -33.8815 -33.8538 -33.8382 -33.8312 -33.8312
   -33.8259 -33.8101 -33.8085 -33.8085 -33.8008 -33.7787 -33.7787 -33.7501
   -33.7364 -33.7364 -33.7182 -33.7177 -33.7126 -33.7122 -33.7116 -33.7116
   -33.7079 -33.6743 -33.6743 -33.6266 -33.5636 -33.5193 -33.5193 -33.5107
   -33.4861 -33.4861 -33.4844 -33.4749 -33.4330 -33.4330 -33.4090 -33.4090
     7.3800   9.3284  11.1824  12.4262  12.4262  13.1381  13.8704  13.8705
    14.2636  14.2640  14.2640  14.3531  14.4389  14.6053  14.6053  14.9983
    15.0406  15.1702  15.2817  16.0455  16.0455  16.0490  16.0820  16.3031
    16.3031  16.3488  16.3488  16.4302  16.5672  16.5672  16.6117  16.9582
    17.0218  17.0218  17.0325  17.0325  17.3750  17.4791  17.4791  17.4880
    17.4880  17.5967  17.7836  17.7976  17.8183  17.8183  18.0090  18.1733
    18.2161  18.4153  18.4306  18.4306  18.5908  18.9782  19.0917  19.0917
    19.1580  19.1897  19.1897  19.2102  19.3947  19.4160  19.5778  19.6224
    19.6376  19.6569  19.6621  19.6795  19.7225  19.7225  19.8316  19.8522
    19.9541  19.9694  20.0177  20.0177  20.2027  20.2279  20.2279  20.2738
    20.3337  20.3337  20.3575

          k = 0.4000 0.0000 0.0000 (  8165 PWs)   bands (ev):

   -67.7065 -67.6766 -67.6663 -67.6502 -67.6502 -67.6484 -67.6484 -67.6442
   -67.6424 -67.6267 -67.4628 -67.4555 -67.3814 -67.3761 -33.9475 -33.9475
   -33.9459 -33.9336 -33.9336 -33.8837 -33.8735 -33.8682 -33.8682 -33.8619
   -33.8619 -33.8541 -33.8456 -33.7981 -33.7916 -33.7718 -33.7718 -33.7687
   -33.7470 -33.7470 -33.7164 -33.7160 -33.7143 -33.7139 -33.6882 -33.6882
   -33.6833 -33.6448 -33.6448 -33.6026 -33.5680 -33.5234 -33.5204 -33.5204
   -33.4945 -33.4945 -33.4922 -33.4754 -33.4329 -33.4329 -33.4087 -33.4087
     7.6151   9.3902  10.3748  12.5614  12.5614  13.6073  13.7427  14.0700
    14.2535  14.2535  14.3151  14.3679  14.6615  14.6615  14.8568  14.9779
    15.1782  15.2592  15.3936  15.5576  15.8870  16.0764  16.0764  16.1473
    16.1473  16.1699  16.1699  16.3510  16.5218  16.5218  16.7320  16.7528
    16.8652  16.8847  16.8847  16.9729  16.9729  17.0644  17.3222  17.3222
    17.3638  17.3638  17.4853  17.8220  18.0939  18.1129  18.1129  18.4450
    18.5882  18.6393  18.6710  18.6710  18.7204  18.9726  18.9726  19.0154
    19.1102  19.1102  19.1283  19.3731  19.4491  19.4851  19.5075  19.5173
    19.6346  19.6498  19.7035  19.7360  19.7360  19.7523  19.8066  19.8713
    19.9531  19.9865  20.0043  20.0043  20.1623  20.2940  20.2940  20.5521
    20.8922  21.0959  21.0959

          k = 0.2000 0.2000 0.0000 (  8216 PWs)   bands (ev):

   -67.7078 -67.6817 -67.6576 -67.6512 -67.6500 -67.6464 -67.6464 -67.6463
   -67.6416 -67.6322 -67.4621 -67.4562 -67.3810 -67.3766 -33.9741 -33.9632
   -33.9577 -33.9569 -33.9511 -33.8729 -33.8697 -33.8533 -33.8510 -33.8439
   -33.8253 -33.8225 -33.8025 -33.7952 -33.7825 -33.7784 -33.7728 -33.7589
   -33.7511 -33.7433 -33.7319 -33.7246 -33.7205 -33.7184 -33.7139 -33.7067
   -33.6819 -33.6695 -33.6570 -33.6260 -33.5544 -33.5176 -33.5167 -33.5092
   -33.4897 -33.4895 -33.4882 -33.4784 -33.4314 -33.4303 -33.4123 -33.4111
     7.5411   9.1368  11.3321  12.1861  12.5669  13.0981  13.4545  14.0359
    14.0379  14.1666  14.4218  14.4617  14.5557  14.5754  14.9621  15.1154
    15.1179  15.2837  15.4444  15.8454  16.0816  16.1211  16.1281  16.2558
    16.3113  16.3117  16.3462  16.3520  16.3818  16.4499  16.7233  16.8051
    16.8203  16.9262  16.9312  17.0413  17.2292  17.3125  17.3419  17.3505
    17.4815  17.5261  17.5684  17.7606  17.7695  17.9883  18.1353  18.2995
    18.3251  18.4489  18.4627  18.4872  18.5985  18.9793  19.0215  19.0893
    19.1618  19.2312  19.2803  19.3260  19.3388  19.4437  19.5068  19.5478
    19.5748  19.6270  19.6323  19.6736  19.7706  19.8122  19.8198  19.8384
    19.9107  19.9154  20.0277  20.0714  20.1514  20.2538  20.3117  20.4300
    20.4457  20.6700  20.8830

          k = 0.2000 0.4000 0.0000 (  8200 PWs)   bands (ev):

   -67.7009 -67.6915 -67.6549 -67.6519 -67.6498 -67.6478 -67.6448 -67.6429
   -67.6409 -67.6356 -67.4603 -67.4579 -67.3797 -67.3779 -33.9618 -33.9567
   -33.9409 -33.9365 -33.9269 -33.9030 -33.8737 -33.8669 -33.8572 -33.8497
   -33.8484 -33.8296 -33.8066 -33.8008 -33.7820 -33.7719 -33.7710 -33.7580
   -33.7531 -33.7530 -33.7443 -33.7388 -33.7242 -33.7180 -33.7083 -33.6946
   -33.6627 -33.6613 -33.6458 -33.6336 -33.5319 -33.5115 -33.5091 -33.5055
   -33.5040 -33.4985 -33.4932 -33.4869 -33.4268 -33.4239 -33.4196 -33.4166
     7.9911   8.6078  11.7226  12.0276  12.8547  12.8683  12.9562  13.4933
    14.0853  14.1881  14.5467  14.6357  14.8409  15.0284  15.1555  15.2596
    15.3649  15.4648  15.6171  15.6833  15.8407  15.9661  16.0467  16.0975
    16.1295  16.2098  16.3831  16.3833  16.4472  16.4550  16.6739  16.7185
    16.7511  16.8080  16.8870  16.9479  16.9721  17.0680  17.1008  17.1120
    17.1273  17.2645  17.6088  17.7618  17.8919  17.9857  18.2491  18.2729
    18.4474  18.5794  18.6277  18.6852  18.8426  18.8977  18.9259  19.0882
    19.0972  19.2742  19.2791  19.3238  19.3255  19.5296  19.5542  19.5989
    19.6024  19.6163  19.6311  19.6355  19.6940  19.7293  19.7402  19.7838
    19.8056  19.8654  20.0768  20.1561  20.2066  20.3919  20.5055  20.5330
    21.2695  21.4160  21.5347

          k = 0.4000 0.0000 0.2000 (  8200 PWs)   bands (ev):

   -67.7045 -67.6812 -67.6649 -67.6511 -67.6497 -67.6478 -67.6456 -67.6448
   -67.6429 -67.6282 -67.4621 -67.4562 -67.3810 -67.3766 -33.9531 -33.9509
   -33.9419 -33.9311 -33.9289 -33.8869 -33.8765 -33.8732 -33.8661 -33.8618
   -33.8455 -33.8371 -33.8325 -33.7973 -33.7904 -33.7702 -33.7678 -33.7668
   -33.7548 -33.7424 -33.7358 -33.7256 -33.7218 -33.7168 -33.6982 -33.6943
   -33.6726 -33.6609 -33.6451 -33.6177 -33.5538 -33.5162 -33.5149 -33.5126
   -33.4955 -33.4940 -33.4931 -33.4790 -33.4312 -33.4299 -33.4117 -33.4107
     7.7644   9.2166  10.5612  12.4047  12.7083  12.9724  13.6109  14.0277
    14.1240  14.2881  14.4058  14.6603  14.7739  14.7930  15.0379  15.0464
    15.2166  15.3279  15.5529  15.6212  15.9633  15.9898  16.1016  16.1267
    16.1313  16.1880  16.2338  16.2898  16.4021  16.4741  16.6826  16.7680
    16.7742  16.7811  16.8405  16.8881  16.9220  16.9531  17.2110  17.2807
    17.3055  17.4328  17.5077  17.6239  17.9530  17.9574  18.1668  18.3230
    18.5889  18.6952  18.7470  18.7885  18.7909  18.8134  18.9289  19.0703
    19.0735  19.1860  19.2180  19.3175  19.3422  19.4791  19.5108  19.5120
    19.5666  19.6396  19.6470  19.7117  19.7150  19.7634  19.8210  19.8657
    19.8718  19.8867  19.9618  20.1995  20.3015  20.5054  20.6536  20.9388
    21.1105  21.1686  21.3304

          k = 0.4000 0.4000 0.0000 (  8162 PWs)   bands (ev):

   -67.6986 -67.6901 -67.6606 -67.6553 -67.6481 -67.6463 -67.6463 -67.6443
   -67.6385 -67.6321 -67.4602 -67.4578 -67.3795 -67.3778 -33.9568 -33.9558
   -33.9310 -33.9272 -33.9270 -33.9118 -33.8640 -33.8627 -33.8567 -33.8449
   -33.8368 -33.8358 -33.8057 -33.7805 -33.7783 -33.7776 -33.7697 -33.7680
   -33.7597 -33.7540 -33.7515 -33.7369 -33.7330 -33.7236 -33.7171 -33.7099
   -33.6753 -33.6563 -33.6493 -33.6477 -33.5280 -33.5072 -33.5062 -33.4997
   -33.4995 -33.4994 -33.4923 -33.4865 -33.4263 -33.4231 -33.4188 -33.4159
     8.1790   8.7404  11.0985  11.9028  12.5764  13.0345  13.1184  13.6964
    14.1501  14.1810  14.7847  14.9700  15.0007  15.0852  15.1346  15.1661
    15.4211  15.4764  15.6489  15.6825  15.8039  15.9217  16.0383  16.0831
    16.1250  16.1852  16.2713  16.3151  16.3301  16.3803  16.5053  16.5698
    16.6489  16.7348  16.7350  16.8186  16.9643  16.9958  17.0039  17.0951
    17.1938  17.2738  17.5055  17.7026  17.8305  17.9330  17.9872  18.2161
    18.4220  18.4412  18.7386  18.8196  18.9271  18.9936  19.0508  19.0630
    19.1200  19.1976  19.2262  19.3333  19.3541  19.4457  19.4928  19.4994
    19.5190  19.5652  19.5808  19.6032  19.6595  19.6856  19.7839  19.8310
    19.8846  19.9040  20.3497  20.4908  20.6409  20.6733  20.8760  21.2181
    21.3377  21.4900  21.6786

          k = 0.4000 0.2000 0.2000 (  8176 PWs)   bands (ev):

   -67.7026 -67.6840 -67.6634 -67.6510 -67.6503 -67.6485 -67.6456 -67.6436
   -67.6421 -67.6292 -67.4614 -67.4567 -67.3804 -67.3770 -33.9506 -33.9460
   -33.9440 -33.9331 -33.9281 -33.8910 -33.8672 -33.8653 -33.8592 -33.8561
   -33.8437 -33.8332 -33.8210 -33.7986 -33.7974 -33.7805 -33.7760 -33.7554
   -33.7546 -33.7519 -33.7500 -33.7365 -33.7311 -33.7237 -33.6897 -33.6869
   -33.6718 -33.6687 -33.6453 -33.6209 -33.5448 -33.5194 -33.5093 -33.5039
   -33.4960 -33.4960 -33.4938 -33.4824 -33.4323 -33.4253 -33.4165 -33.4099
     7.9071   9.1239  10.7439  12.0376  12.8128  13.1527  13.1546  13.4950
    14.0306  14.4747  14.7467  14.9126  14.9400  14.9578  14.9628  15.2110
    15.2125  15.4066  15.5832  15.8094  15.8958  15.9880  16.1206  16.1662
    16.1676  16.2063  16.2256  16.2444  16.3800  16.4089  16.6139  16.6722
    16.6834  16.7269  16.7313  16.8156  16.8726  16.8907  17.0721  17.1412
    17.3369  17.4210  17.4389  17.5554  17.8809  17.9306  17.9987  18.1777
    18.7316  18.8014  18.8182  18.8413  18.8547  18.8945  19.0024  19.0026
    19.1710  19.2450  19.2507  19.3249  19.3433  19.4039  19.5040  19.5221
    19.5245  19.5875  19.6210  19.6310  19.6401  19.7011  19.7258  19.7923
    19.8491  19.9019  19.9698  20.0642  20.2876  20.5971  21.0408  21.0680
    21.2817  21.4569  21.5583

          k = 0.4000 0.4000 0.2000 (  8159 PWs)   bands (ev):

   -67.6975 -67.6906 -67.6594 -67.6545 -67.6494 -67.6474 -67.6473 -67.6453
   -67.6368 -67.6320 -67.4599 -67.4580 -67.3794 -67.3780 -33.9502 -33.9496
   -33.9339 -33.9303 -33.9207 -33.9031 -33.8575 -33.8558 -33.8477 -33.8397
   -33.8329 -33.8310 -33.8058 -33.8011 -33.7887 -33.7879 -33.7827 -33.7791
   -33.7679 -33.7656 -33.7526 -33.7458 -33.7439 -33.7348 -33.6979 -33.6957
   -33.6582 -33.6567 -33.6468 -33.6350 -33.5253 -33.5136 -33.5061 -33.5035
   -33.4980 -33.4959 -33.4927 -33.4891 -33.4297 -33.4237 -33.4186 -33.4129
     8.2954   8.7840  11.2653  11.8893  12.1541  12.4410  13.5776  13.6618
    13.9505  14.0889  14.9484  15.0238  15.0784  15.2250  15.3339  15.3846
    15.4505  15.5769  15.6709  15.7175  15.9334  16.0049  16.0435  16.1009
    16.1581  16.2075  16.2919  16.2971  16.3203  16.3766  16.4071  16.5143
    16.5629  16.6263  16.6778  16.7414  16.7675  16.8986  16.9400  16.9480
    17.0927  17.1851  17.5011  17.6939  17.7247  17.7534  17.7773  18.0407
    18.7168  18.7510  18.8727  18.9057  19.0366  19.1058  19.1313  19.1416
    19.1525  19.2592  19.2799  19.3484  19.3873  19.4413  19.4426  19.4683
    19.4938  19.5160  19.5286  19.5380  19.6332  19.6527  19.6861  19.7075
    19.7749  19.7857  20.0051  20.2656  20.3057  20.7662  20.9237  21.5038
    21.6866  21.9015  22.0556

     the Fermi energy is    17.8904 ev

!    total energy              =   -4632.69379571 Ry
     estimated scf accuracy    <          6.7E-09 Ry
     smearing contrib. (-TS)   =       0.00038630 Ry
     internal energy E=F+TS    =   -4632.69418202 Ry

     The total energy is F=E-TS. E is the sum of the following terms:
     one-electron contribution =   -1717.63234091 Ry
     hartree contribution      =    1010.34936870 Ry
     xc contribution           =    -500.45065960 Ry
     ewald contribution        =   -2358.85263536 Ry
     one-center paw contrib.   =   -1066.10791484 Ry

     total magnetization       =    29.00 Bohr mag/cell
     absolute magnetization    =    31.05 Bohr mag/cell

     convergence has been achieved in  34 iterations

     negative rho (up, down):  0.000E+00 1.626E-03

     Forces acting on atoms (cartesian axes, Ry/au):

     atom    1 type  2   force =     0.00000000    0.00000000    0.00000000
     atom    2 type  2   force =     0.00000000    0.00000000    0.00000000
     atom    3 type  2   force =     0.00000000    0.00000000    0.00000000
     atom    4 type  2   force =     0.00000000    0.00000000    0.00000000
     atom    5 type  2   force =     0.00175388   -0.00002039   -0.00002039
     atom    6 type  2   force =     0.00175388    0.00002039    0.00002039
     atom    7 type  2   force =    -0.00175388   -0.00002039    0.00002039
     atom    8 type  2   force =    -0.00175388    0.00002039   -0.00002039
     atom    9 type  2   force =    -0.00175388    0.00002039    0.00002039
     atom   10 type  2   force =    -0.00175388   -0.00002039   -0.00002039
     atom   11 type  2   force =     0.00175388    0.00002039   -0.00002039
     atom   12 type  2   force =     0.00175388   -0.00002039    0.00002039
     atom   13 type  2   force =     0.00000000    0.00000000    0.00000000
     atom   14 type  2   force =     0.00000000    0.00000000    0.00000000
     atom   15 type  1   force =     0.00000000    0.00000000    0.00000000
     atom   16 type  1   force =     0.00000000    0.00000000    0.00000000

     Total force =     0.004961     Total SCF correction =     0.000306


     Computing stress (Cartesian axis) and pressure


     negative rho (up, down):  0.000E+00 1.626E-03
          total   stress  (Ry/bohr**3)                   (kbar)     P=      -16.89
  -0.00007806   0.00000000   0.00000000          -11.48        0.00        0.00
   0.00000000  -0.00013318   0.00000000            0.00      -19.59        0.00
   0.00000000   0.00000000  -0.00013318            0.00        0.00      -19.59


     BFGS Geometry Optimization
     Energy error            =      0.0E+00 Ry
     Gradient error          =      1.8E-03 Ry/Bohr
     Cell gradient error     =      2.0E+01 kbar

     number of scf cycles    =   1
     number of bfgs steps    =   0

     enthalpy           new  =   -4632.6937957150 Ry

     new trust radius        =       0.0232626181 bohr
     new conv_thr            =       0.0000000100 Ry

     new unit-cell volume =   1209.89940 a.u.^3 (   179.28859 Ang^3 )
     density =      7.76141 g/cm^3

CELL_PARAMETERS (alat= 10.68640123)
   0.998048487   0.000000000   0.000000000
   0.000000000   0.996670482   0.000000000
   0.000000000   0.000000000   0.996670482

ATOMIC_POSITIONS (crystal)
Fe            0.5000000000        0.5000000000        0.5000000000
Fe            0.5000000000        1.0000000000        1.0000000000
Fe            1.0000000000        0.5000000000        1.0000000000
Fe            1.0000000000        1.0000000000        0.5000000000
Fe            0.2501641226        0.2499980922        0.2499980922
Fe            0.2501641226        0.7500019078        0.7500019078
Fe            0.7498358774        0.2499980922        0.7500019078
Fe            0.7498358774        0.7500019078        0.2499980922
Fe            0.7498358774        0.7500019078        0.7500019078
Fe            0.7498358774        0.2499980922        0.2499980922
Fe            0.2501641226        0.7500019078        0.2499980922
Fe            0.2501641226        0.2499980922        0.7500019078
Fe            0.0000000000        0.0000000000        0.0000000000
Fe            0.0000000000        0.5000000000        0.5000000000
Si            0.5000000000        0.0000000000        0.5000000000
Si            0.5000000000        0.5000000000        0.0000000000



     Writing config-only to output data dir ./file.save/
     NEW-OLD atomic charge density approx. for the potential

     Check: negative core charge=   -0.000073

     negative rho (up, down):  0.000E+00 1.618E-03
     extrapolated charge  229.99074, renormalised to  232.00000
     Generating pointlists ...

     total cpu time spent up to now is     5050.7 secs

     per-process dynamical memory:   831.7 Mb

     Self-consistent Calculation

     iteration #  1     ecut=    54.00 Ry     beta= 0.70
