
     Program PWSCF v.7.1 starts on 27Nov2022 at  2:10:59 

     This program is part of the open-source Quantum ESPRESSO suite
     for quantum simulation of materials; please cite
         "P. Giannozzi et al., J. Phys.:Condens. Matter 21 395502 (2009);
         "P. Giannozzi et al., J. Phys.:Condens. Matter 29 465901 (2017);
         "P. Giannozzi et al., J. Chem. Phys. 152 154105 (2020);
          URL http://www.quantum-espresso.org", 
     in publications or presentations arising from this work. More details at
     http://www.quantum-espresso.org/quote

     Parallel version (MPI), running on     8 processors

     MPI processes distributed on     1 nodes
     7126 MiB available memory on the printing compute node when the environment starts
 
     Waiting for input...
     Reading input from standard input

     Current dimensions of program PWSCF are:
     Max number of different atomic species (ntypx) = 10
     Max number of k-points (npk) =  40000
     Max angular momentum in pseudopotentials (lmaxx) =  4
     file Fe.pbe-spn-kjpaw_psl.0.2.1.UPF: wavefunction(s)  3D renormalized

     IMPORTANT: XC functional enforced from input :
     Exchange-correlation= PBE
                           (   1   4   3   4   0   0   0)
     Any further DFT definition will be discarded
     Please, verify this is what you really want

     Message from routine setup:
     using ibrav=0 with symmetry is DISCOURAGED, use correct ibrav instead
 
     R & G space division:  proc/nbgrp/npool/nimage =       8
     Subspace diagonalization in iterative solution of the eigenvalue problem:
     a serial algorithm will be used

 
     Parallelization info
     --------------------
     sticks:   dense  smooth     PW     G-vecs:    dense   smooth      PW
     Min         980     486    135                46225    16304    2350
     Max         981     487    136                46226    16307    2351
     Sum        7847    3895   1083               369801   130447   18805
 
     Using Slab Decomposition
 


     bravais-lattice index     =            0
     lattice parameter (alat)  =      10.6864  a.u.
     unit-cell volume          =    2440.7563 (a.u.)^3
     number of atoms/cell      =           32
     number of atomic types    =            2
     number of electrons       =       464.00
     number of Kohn-Sham states=          278
     kinetic-energy cutoff     =      54.0000  Ry
     charge density cutoff     =     432.0000  Ry
     scf convergence threshold =      1.0E-08
     mixing beta               =       0.7000
     number of iterations used =            8  plain     mixing
     energy convergence thresh.=      1.0E-04
     force convergence thresh. =      1.0E-03
     press convergence thresh. =      5.0E-01
     Exchange-correlation= PBE
                           (   1   4   3   4   0   0   0)
     nstep                     =           50


     GPU acceleration is ACTIVE.

     Message from routine print_cuda_info:
     High GPU oversubscription detected. Are you sure this is what you want?

     celldm(1)=  10.686401  celldm(2)=   0.000000  celldm(3)=   0.000000
     celldm(4)=   0.000000  celldm(5)=   0.000000  celldm(6)=   0.000000

     crystal axes: (cart. coord. in units of alat)
               a(1) = (   2.000000   0.000000   0.000000 )  
               a(2) = (   0.000000   1.000000   0.000000 )  
               a(3) = (   0.000000   0.000000   1.000000 )  

     reciprocal axes: (cart. coord. in units 2 pi/alat)
               b(1) = (  0.500000  0.000000  0.000000 )  
               b(2) = (  0.000000  1.000000  0.000000 )  
               b(3) = (  0.000000  0.000000  1.000000 )  


     PseudoPot. # 1 for Si read from file:
     ./Si.pbe-n-rrkjus_psl.1.0.0.UPF
     MD5 check sum: 0b0bb1205258b0d07b9f9672cf965d36
     Pseudo is Ultrasoft + core correction, Zval =  4.0
     Generated using "atomic" code by A. Dal Corso  v.5.1
     Using radial grid of 1141 points,  6 beta functions with: 
                l(1) =   0
                l(2) =   0
                l(3) =   1
                l(4) =   1
                l(5) =   2
                l(6) =   2
     Q(r) pseudized with 0 coefficients 


     PseudoPot. # 2 for Fe read from file:
     ./Fe.pbe-spn-kjpaw_psl.0.2.1.UPF
     MD5 check sum: e86618425769142926afa95317d90200
     Pseudo is Projector augmented-wave + core cor, Zval = 16.0
     Generated using "atomic" code by A. Dal Corso  v.5.0.99 svn rev. 10869
     Shape of augmentation charge: PSQ
     Using radial grid of 1191 points,  6 beta functions with: 
                l(1) =   0
                l(2) =   0
                l(3) =   1
                l(4) =   1
                l(5) =   2
                l(6) =   2
     Q(r) pseudized with 0 coefficients 


     atomic species   valence    mass     pseudopotential
        Si             4.00    28.08500     Si( 1.00)
        Fe            16.00    55.84500     Fe( 1.00)

     Starting magnetic structure 
     atomic species   magnetization
        Si           1.000
        Fe           1.000

     16 Sym. Ops., with inversion, found ( 8 have fractional translation)



   Cartesian axes

     site n.     atom                  positions (alat units)
         1           Fe  tau(   1) = (   0.5000000   0.5000000   0.5000000  )
         2           Fe  tau(   2) = (   0.5000000   1.0000000   1.0000000  )
         3           Fe  tau(   3) = (   1.0000000   0.5000000   1.0000000  )
         4           Fe  tau(   4) = (   1.0000000   1.0000000   0.5000000  )
         5           Fe  tau(   5) = (   0.2500000   0.2500000   0.2500000  )
         6           Fe  tau(   6) = (   0.2500000   0.7500000   0.7500000  )
         7           Fe  tau(   7) = (   0.7500000   0.2500000   0.7500000  )
         8           Fe  tau(   8) = (   0.7500000   0.7500000   0.2500000  )
         9           Fe  tau(   9) = (   0.7500000   0.7500000   0.7500000  )
        10           Fe  tau(  10) = (   0.7500000   0.2500000   0.2500000  )
        11           Fe  tau(  11) = (   0.2500000   0.7500000   0.2500000  )
        12           Fe  tau(  12) = (   0.2500000   0.2500000   0.7500000  )
        13           Fe  tau(  13) = (   0.0000000   0.0000000   0.0000000  )
        14           Si  tau(  14) = (   0.0000000   0.5000000   0.5000000  )
        15           Fe  tau(  15) = (   0.5000000   0.0000000   0.5000000  )
        16           Fe  tau(  16) = (   0.5000000   0.5000000   0.0000000  )
        17           Fe  tau(  17) = (   1.5000000   0.5000000   0.5000000  )
        18           Fe  tau(  18) = (   1.5000000   1.0000000   1.0000000  )
        19           Fe  tau(  19) = (   2.0000000   0.5000000   1.0000000  )
        20           Fe  tau(  20) = (   2.0000000   1.0000000   0.5000000  )
        21           Fe  tau(  21) = (   1.2500000   0.2500000   0.2500000  )
        22           Fe  tau(  22) = (   1.2500000   0.7500000   0.7500000  )
        23           Fe  tau(  23) = (   1.7500000   0.2500000   0.7500000  )
        24           Fe  tau(  24) = (   1.7500000   0.7500000   0.2500000  )
        25           Fe  tau(  25) = (   1.7500000   0.7500000   0.7500000  )
        26           Fe  tau(  26) = (   1.7500000   0.2500000   0.2500000  )
        27           Fe  tau(  27) = (   1.2500000   0.7500000   0.2500000  )
        28           Fe  tau(  28) = (   1.2500000   0.2500000   0.7500000  )
        29           Fe  tau(  29) = (   1.0000000   0.0000000   0.0000000  )
        30           Si  tau(  30) = (   1.0000000   0.5000000   0.5000000  )
        31           Si  tau(  31) = (   1.5000000   0.0000000   0.5000000  )
        32           Si  tau(  32) = (   1.5000000   0.5000000   0.0000000  )

     number of k points=    18  Marzari-Vanderbilt smearing, width (Ry)=  0.0050
                       cart. coord. in units 2pi/alat
        k(    1) = (   0.0000000   0.0000000   0.0000000), wk =   0.0080000
        k(    2) = (   0.0000000   0.0000000   0.2000000), wk =   0.0320000
        k(    3) = (   0.0000000   0.0000000   0.4000000), wk =   0.0320000
        k(    4) = (   0.0000000   0.2000000   0.2000000), wk =   0.0320000
        k(    5) = (   0.0000000   0.2000000   0.4000000), wk =   0.0640000
        k(    6) = (   0.0000000   0.4000000   0.4000000), wk =   0.0320000
        k(    7) = (   0.1000000   0.0000000   0.0000000), wk =   0.0160000
        k(    8) = (   0.1000000   0.0000000   0.2000000), wk =   0.0640000
        k(    9) = (   0.1000000   0.0000000   0.4000000), wk =   0.0640000
        k(   10) = (   0.1000000   0.2000000   0.2000000), wk =   0.0640000
        k(   11) = (   0.1000000   0.2000000   0.4000000), wk =   0.1280000
        k(   12) = (   0.1000000   0.4000000   0.4000000), wk =   0.0640000
        k(   13) = (   0.2000000   0.0000000   0.0000000), wk =   0.0160000
        k(   14) = (   0.2000000   0.0000000   0.2000000), wk =   0.0640000
        k(   15) = (   0.2000000   0.0000000   0.4000000), wk =   0.0640000
        k(   16) = (   0.2000000   0.2000000   0.2000000), wk =   0.0640000
        k(   17) = (   0.2000000   0.2000000   0.4000000), wk =   0.1280000
        k(   18) = (   0.2000000   0.4000000   0.4000000), wk =   0.0640000

     Dense  grid:   369801 G-vectors     FFT dimensions: ( 144,  72,  72)

     Smooth grid:   130447 G-vectors     FFT dimensions: ( 100,  50,  50)

     Estimated max dynamical RAM per process >     579.88 MB

     Estimated total dynamical RAM >       4.53 GB

     Check: negative core charge=   -0.000071
     Generating pointlists ...
     new r_m :   0.1786 (alat units)  1.9088 (a.u.) for type    1
     new r_m :   0.1786 (alat units)  1.9088 (a.u.) for type    2

     Initial potential from superposition of free atoms

     starting charge     463.9855, renormalised to     464.0000
     Starting wfcs are  380 randomized atomic wfcs
     Checking if some PAW data can be deallocated... 

     total cpu time spent up to now is      111.9 secs

     Self-consistent Calculation

     iteration #  1     ecut=    54.00 Ry     beta= 0.70
     Davidson diagonalization with overlap
     ethr =  1.00E-02,  avg # of iterations =  2.7

     negative rho (up, down):  0.000E+00 6.200E-03

     total cpu time spent up to now is      265.7 secs

     total energy              =   -9246.73653192 Ry
     estimated scf accuracy    <     118.08108803 Ry

     total magnetization       =    92.00 Bohr mag/cell
     absolute magnetization    =   121.64 Bohr mag/cell

     iteration #  2     ecut=    54.00 Ry     beta= 0.70
     Davidson diagonalization with overlap
     ethr =  1.00E-02,  avg # of iterations =  3.3

     negative rho (up, down):  0.000E+00 4.575E-03

     total cpu time spent up to now is      421.9 secs

     total energy              =   -9243.24257480 Ry
     estimated scf accuracy    <      48.25466881 Ry

     total magnetization       =    79.80 Bohr mag/cell
     absolute magnetization    =    89.25 Bohr mag/cell

     iteration #  3     ecut=    54.00 Ry     beta= 0.70
     Davidson diagonalization with overlap
     ethr =  1.00E-02,  avg # of iterations =  6.6

     negative rho (up, down):  0.000E+00 4.041E-03

     total cpu time spent up to now is      644.6 secs

     total energy              =   -9146.26740706 Ry
     estimated scf accuracy    <    3122.66215616 Ry

     total magnetization       =    15.71 Bohr mag/cell
     absolute magnetization    =    17.73 Bohr mag/cell

     iteration #  4     ecut=    54.00 Ry     beta= 0.70
     Davidson diagonalization with overlap
     ethr =  1.00E-02,  avg # of iterations =  6.4

     negative rho (up, down):  0.000E+00 2.699E-03

     total cpu time spent up to now is      900.2 secs

     total energy              =   -9232.29430033 Ry
     estimated scf accuracy    <     699.62251663 Ry

     total magnetization       =    34.89 Bohr mag/cell
     absolute magnetization    =    39.50 Bohr mag/cell

     iteration #  5     ecut=    54.00 Ry     beta= 0.70
     Davidson diagonalization with overlap
     ethr =  1.00E-02,  avg # of iterations =  4.6

     negative rho (up, down):  0.000E+00 2.115E-03

     total cpu time spent up to now is     1072.9 secs

     total energy              =   -9255.25593340 Ry
     estimated scf accuracy    <     182.02751947 Ry

     total magnetization       =    31.77 Bohr mag/cell
     absolute magnetization    =    37.01 Bohr mag/cell

     iteration #  6     ecut=    54.00 Ry     beta= 0.70
     Davidson diagonalization with overlap
     ethr =  1.00E-02,  avg # of iterations =  3.1

     negative rho (up, down):  0.000E+00 2.059E-03

     total cpu time spent up to now is     1220.2 secs

     total energy              =   -9260.67812674 Ry
     estimated scf accuracy    <      74.29568117 Ry

     total magnetization       =    35.38 Bohr mag/cell
     absolute magnetization    =    38.71 Bohr mag/cell

     iteration #  7     ecut=    54.00 Ry     beta= 0.70
     Davidson diagonalization with overlap
     ethr =  1.00E-02,  avg # of iterations =  1.6

     negative rho (up, down):  0.000E+00 1.928E-03

     total cpu time spent up to now is     1335.8 secs

     total energy              =   -9263.06079338 Ry
     estimated scf accuracy    <      40.23282481 Ry

     total magnetization       =    35.24 Bohr mag/cell
     absolute magnetization    =    39.73 Bohr mag/cell

     iteration #  8     ecut=    54.00 Ry     beta= 0.70
     Davidson diagonalization with overlap
     ethr =  8.67E-03,  avg # of iterations =  1.0

     negative rho (up, down):  0.000E+00 1.683E-03

     total cpu time spent up to now is     1443.0 secs

     total energy              =   -9264.01817682 Ry
     estimated scf accuracy    <      25.56582677 Ry

     total magnetization       =    40.58 Bohr mag/cell
     absolute magnetization    =    44.55 Bohr mag/cell

     iteration #  9     ecut=    54.00 Ry     beta= 0.70
     Davidson diagonalization with overlap
     ethr =  5.51E-03,  avg # of iterations =  1.0

     negative rho (up, down):  0.000E+00 1.573E-03

     total cpu time spent up to now is     1549.8 secs

     total energy              =   -9264.45425988 Ry
     estimated scf accuracy    <      15.22560495 Ry

     total magnetization       =    44.54 Bohr mag/cell
     absolute magnetization    =    47.88 Bohr mag/cell

     iteration # 10     ecut=    54.00 Ry     beta= 0.70
     Davidson diagonalization with overlap
     ethr =  3.28E-03,  avg # of iterations =  1.1

     negative rho (up, down):  0.000E+00 1.472E-03

     total cpu time spent up to now is     1657.2 secs

     total energy              =   -9264.61695444 Ry
     estimated scf accuracy    <       6.70707689 Ry

     total magnetization       =    47.86 Bohr mag/cell
     absolute magnetization    =    50.76 Bohr mag/cell

     iteration # 11     ecut=    54.00 Ry     beta= 0.70
     Davidson diagonalization with overlap
     ethr =  1.45E-03,  avg # of iterations =  1.6

     negative rho (up, down):  0.000E+00 1.434E-03

     total cpu time spent up to now is     1771.9 secs

     total energy              =   -9264.62961201 Ry
     estimated scf accuracy    <      20.45751455 Ry

     total magnetization       =    43.79 Bohr mag/cell
     absolute magnetization    =    47.46 Bohr mag/cell

     iteration # 12     ecut=    54.00 Ry     beta= 0.70
     Davidson diagonalization with overlap
     ethr =  1.45E-03,  avg # of iterations =  1.0

     negative rho (up, down):  0.000E+00 1.461E-03

     total cpu time spent up to now is     1878.7 secs

     total energy              =   -9264.92421857 Ry
     estimated scf accuracy    <       5.88943516 Ry

     total magnetization       =    48.24 Bohr mag/cell
     absolute magnetization    =    51.32 Bohr mag/cell

     iteration # 13     ecut=    54.00 Ry     beta= 0.70
     Davidson diagonalization with overlap
     ethr =  1.27E-03,  avg # of iterations =  1.3

     negative rho (up, down):  0.000E+00 1.452E-03

     total cpu time spent up to now is     1989.1 secs

     total energy              =   -9264.87472655 Ry
     estimated scf accuracy    <       6.59235647 Ry

     total magnetization       =    48.96 Bohr mag/cell
     absolute magnetization    =    52.14 Bohr mag/cell

     iteration # 14     ecut=    54.00 Ry     beta= 0.70
     Davidson diagonalization with overlap
     ethr =  1.27E-03,  avg # of iterations =  1.0

     negative rho (up, down):  0.000E+00 1.434E-03

     total cpu time spent up to now is     2095.8 secs

     total energy              =   -9265.00323629 Ry
     estimated scf accuracy    <       7.17968277 Ry

     total magnetization       =    51.37 Bohr mag/cell
     absolute magnetization    =    54.27 Bohr mag/cell

     iteration # 15     ecut=    54.00 Ry     beta= 0.70
     Davidson diagonalization with overlap
     ethr =  1.27E-03,  avg # of iterations =  1.0

     negative rho (up, down):  0.000E+00 1.568E-03

     total cpu time spent up to now is     2202.8 secs

     total energy              =   -9265.16621712 Ry
     estimated scf accuracy    <       4.50940947 Ry

     total magnetization       =    51.49 Bohr mag/cell
     absolute magnetization    =    54.47 Bohr mag/cell

     iteration # 16     ecut=    54.00 Ry     beta= 0.70
     Davidson diagonalization with overlap
     ethr =  9.72E-04,  avg # of iterations =  1.0

     negative rho (up, down):  0.000E+00 1.669E-03

     total cpu time spent up to now is     2309.8 secs

     total energy              =   -9265.27602270 Ry
     estimated scf accuracy    <       0.72011932 Ry

     total magnetization       =    53.15 Bohr mag/cell
     absolute magnetization    =    56.17 Bohr mag/cell

     iteration # 17     ecut=    54.00 Ry     beta= 0.70
     Davidson diagonalization with overlap
     ethr =  1.55E-04,  avg # of iterations =  1.3

     negative rho (up, down):  0.000E+00 2.071E-03

     total cpu time spent up to now is     2418.9 secs

     total energy              =   -9265.33268036 Ry
     estimated scf accuracy    <       0.44591073 Ry

     total magnetization       =    53.27 Bohr mag/cell
     absolute magnetization    =    56.45 Bohr mag/cell

     iteration # 18     ecut=    54.00 Ry     beta= 0.70
     Davidson diagonalization with overlap
     ethr =  9.61E-05,  avg # of iterations =  1.4

     negative rho (up, down):  0.000E+00 2.012E-03

     total cpu time spent up to now is     2543.2 secs

     total energy              =   -9265.31424997 Ry
     estimated scf accuracy    <       0.45224525 Ry

     total magnetization       =    54.13 Bohr mag/cell
     absolute magnetization    =    57.55 Bohr mag/cell

     iteration # 19     ecut=    54.00 Ry     beta= 0.70
     Davidson diagonalization with overlap
     ethr =  9.61E-05,  avg # of iterations =  1.5

     negative rho (up, down):  0.000E+00 2.462E-03

     total cpu time spent up to now is     2660.7 secs

     total energy              =   -9265.35674498 Ry
     estimated scf accuracy    <       0.32916814 Ry

     total magnetization       =    54.44 Bohr mag/cell
     absolute magnetization    =    57.71 Bohr mag/cell

     iteration # 20     ecut=    54.00 Ry     beta= 0.70
     Davidson diagonalization with overlap
     ethr =  7.09E-05,  avg # of iterations =  2.1

     negative rho (up, down):  0.000E+00 3.191E-03

     total cpu time spent up to now is     2783.7 secs

     total energy              =   -9265.29119340 Ry
     estimated scf accuracy    <       1.16791215 Ry

     total magnetization       =    54.91 Bohr mag/cell
     absolute magnetization    =    58.54 Bohr mag/cell

     iteration # 21     ecut=    54.00 Ry     beta= 0.70
     Davidson diagonalization with overlap
     ethr =  7.09E-05,  avg # of iterations =  4.9

     negative rho (up, down):  0.000E+00 2.521E-03

     total cpu time spent up to now is     2934.3 secs

     total energy              =   -9264.99863243 Ry
     estimated scf accuracy    <       8.02117635 Ry

     total magnetization       =    54.65 Bohr mag/cell
     absolute magnetization    =    58.73 Bohr mag/cell

     iteration # 22     ecut=    54.00 Ry     beta= 0.70
     Davidson diagonalization with overlap
     ethr =  7.09E-05,  avg # of iterations =  4.5

     negative rho (up, down):  0.000E+00 2.548E-03

     total cpu time spent up to now is     3096.2 secs

     total energy              =   -9264.94191114 Ry
     estimated scf accuracy    <       9.30348879 Ry

     total magnetization       =    53.37 Bohr mag/cell
     absolute magnetization    =    56.87 Bohr mag/cell

     iteration # 23     ecut=    54.00 Ry     beta= 0.70
     Davidson diagonalization with overlap
     ethr =  7.09E-05,  avg # of iterations =  3.9

     negative rho (up, down):  0.000E+00 2.501E-03

     total cpu time spent up to now is     3244.7 secs

     total energy              =   -9265.34507972 Ry
     estimated scf accuracy    <       0.69014376 Ry

     total magnetization       =    56.55 Bohr mag/cell
     absolute magnetization    =    60.09 Bohr mag/cell

     iteration # 24     ecut=    54.00 Ry     beta= 0.70
     Davidson diagonalization with overlap
     ethr =  7.09E-05,  avg # of iterations =  2.1

     negative rho (up, down):  0.000E+00 2.719E-03

     total cpu time spent up to now is     3367.8 secs

     total energy              =   -9265.27684615 Ry
     estimated scf accuracy    <       4.42089111 Ry

     total magnetization       =    54.01 Bohr mag/cell
     absolute magnetization    =    57.71 Bohr mag/cell

     iteration # 25     ecut=    54.00 Ry     beta= 0.70
     Davidson diagonalization with overlap
     ethr =  7.09E-05,  avg # of iterations =  2.0

     negative rho (up, down):  0.000E+00 2.652E-03

     total cpu time spent up to now is     3493.0 secs

     total energy              =   -9265.34781528 Ry
     estimated scf accuracy    <       0.83291926 Ry

     total magnetization       =    56.01 Bohr mag/cell
     absolute magnetization    =    59.75 Bohr mag/cell

     iteration # 26     ecut=    54.00 Ry     beta= 0.70
     Davidson diagonalization with overlap
     ethr =  7.09E-05,  avg # of iterations =  1.6

     negative rho (up, down):  0.000E+00 2.575E-03

     total cpu time spent up to now is     3608.3 secs

     total energy              =   -9265.35433332 Ry
     estimated scf accuracy    <       0.63826162 Ry

     total magnetization       =    56.00 Bohr mag/cell
     absolute magnetization    =    59.70 Bohr mag/cell

     iteration # 27     ecut=    54.00 Ry     beta= 0.70
     Davidson diagonalization with overlap
     ethr =  7.09E-05,  avg # of iterations =  1.9

     negative rho (up, down):  0.000E+00 2.775E-03

     total cpu time spent up to now is     3728.4 secs

     total energy              =   -9265.36148733 Ry
     estimated scf accuracy    <       0.64265815 Ry

     total magnetization       =    55.74 Bohr mag/cell
     absolute magnetization    =    59.35 Bohr mag/cell

     iteration # 28     ecut=    54.00 Ry     beta= 0.70
     Davidson diagonalization with overlap
     ethr =  7.09E-05,  avg # of iterations =  1.0

     negative rho (up, down):  0.000E+00 2.815E-03

     total cpu time spent up to now is     3835.9 secs

     total energy              =   -9265.39018425 Ry
     estimated scf accuracy    <       0.03918889 Ry

     total magnetization       =    56.29 Bohr mag/cell
     absolute magnetization    =    60.05 Bohr mag/cell

     iteration # 29     ecut=    54.00 Ry     beta= 0.70
     Davidson diagonalization with overlap
     ethr =  8.45E-06,  avg # of iterations =  2.5

     negative rho (up, down):  0.000E+00 2.905E-03

     total cpu time spent up to now is     3965.7 secs

     total energy              =   -9265.39377987 Ry
     estimated scf accuracy    <       0.04698510 Ry

     total magnetization       =    56.61 Bohr mag/cell
     absolute magnetization    =    60.41 Bohr mag/cell

     iteration # 30     ecut=    54.00 Ry     beta= 0.70
     Davidson diagonalization with overlap
     ethr =  8.45E-06,  avg # of iterations =  2.0

     negative rho (up, down):  0.000E+00 2.973E-03

     total cpu time spent up to now is     4087.7 secs

     total energy              =   -9265.38498002 Ry
     estimated scf accuracy    <       0.11743578 Ry

     total magnetization       =    57.05 Bohr mag/cell
     absolute magnetization    =    60.82 Bohr mag/cell

     iteration # 31     ecut=    54.00 Ry     beta= 0.70
     Davidson diagonalization with overlap
     ethr =  8.45E-06,  avg # of iterations =  4.6

     negative rho (up, down):  0.000E+00 3.002E-03

     total cpu time spent up to now is     4245.0 secs

     total energy              =   -9265.34873043 Ry
     estimated scf accuracy    <       0.87848982 Ry

     total magnetization       =    56.52 Bohr mag/cell
     absolute magnetization    =    60.42 Bohr mag/cell

     iteration # 32     ecut=    54.00 Ry     beta= 0.70
     Davidson diagonalization with overlap
     ethr =  8.45E-06,  avg # of iterations =  4.8

     negative rho (up, down):  0.000E+00 2.953E-03

     total cpu time spent up to now is     4411.3 secs

     total energy              =   -9265.34034705 Ry
     estimated scf accuracy    <       1.02963766 Ry

     total magnetization       =    56.45 Bohr mag/cell
     absolute magnetization    =    60.34 Bohr mag/cell

     iteration # 33     ecut=    54.00 Ry     beta= 0.70
     Davidson diagonalization with overlap
     ethr =  8.45E-06,  avg # of iterations =  5.2

     negative rho (up, down):  0.000E+00 2.972E-03

     total cpu time spent up to now is     4580.7 secs

     total energy              =   -9265.35274183 Ry
     estimated scf accuracy    <       0.96550271 Ry

     total magnetization       =    55.49 Bohr mag/cell
     absolute magnetization    =    59.54 Bohr mag/cell

     iteration # 34     ecut=    54.00 Ry     beta= 0.70
     Davidson diagonalization with overlap
     ethr =  8.45E-06,  avg # of iterations =  3.8

     negative rho (up, down):  0.000E+00 2.976E-03

     total cpu time spent up to now is     4734.2 secs

     total energy              =   -9265.37797765 Ry
     estimated scf accuracy    <       0.68655103 Ry

     total magnetization       =    55.81 Bohr mag/cell
     absolute magnetization    =    59.83 Bohr mag/cell

     iteration # 35     ecut=    54.00 Ry     beta= 0.70
     Davidson diagonalization with overlap
     ethr =  8.45E-06,  avg # of iterations =  2.3

     negative rho (up, down):  0.000E+00 2.981E-03

     total cpu time spent up to now is     4860.4 secs

     total energy              =   -9265.39332209 Ry
     estimated scf accuracy    <       0.03121125 Ry

     total magnetization       =    56.92 Bohr mag/cell
     absolute magnetization    =    60.82 Bohr mag/cell

     iteration # 36     ecut=    54.00 Ry     beta= 0.70
     Davidson diagonalization with overlap
     ethr =  6.73E-06,  avg # of iterations =  2.0

     negative rho (up, down):  0.000E+00 2.989E-03

     total cpu time spent up to now is     4987.7 secs

     total energy              =   -9265.38847846 Ry
     estimated scf accuracy    <       0.13982664 Ry

     total magnetization       =    56.97 Bohr mag/cell
     absolute magnetization    =    60.87 Bohr mag/cell

     iteration # 37     ecut=    54.00 Ry     beta= 0.70
     Davidson diagonalization with overlap
     ethr =  6.73E-06,  avg # of iterations =  1.9

     negative rho (up, down):  0.000E+00 3.066E-03

     total cpu time spent up to now is     5109.4 secs

     total energy              =   -9265.39638675 Ry
     estimated scf accuracy    <       0.04786604 Ry

     total magnetization       =    57.03 Bohr mag/cell
     absolute magnetization    =    60.94 Bohr mag/cell

     iteration # 38     ecut=    54.00 Ry     beta= 0.70
     Davidson diagonalization with overlap
     ethr =  6.73E-06,  avg # of iterations =  1.6

     negative rho (up, down):  0.000E+00 3.036E-03

     total cpu time spent up to now is     5224.8 secs

     total energy              =   -9265.39375053 Ry
     estimated scf accuracy    <       0.06872552 Ry

     total magnetization       =    57.29 Bohr mag/cell
     absolute magnetization    =    61.22 Bohr mag/cell

     iteration # 39     ecut=    54.00 Ry     beta= 0.70
     Davidson diagonalization with overlap
     ethr =  6.73E-06,  avg # of iterations =  1.4

     negative rho (up, down):  0.000E+00 3.079E-03

     total cpu time spent up to now is     5337.5 secs

     total energy              =   -9265.39746764 Ry
     estimated scf accuracy    <       0.00361614 Ry

     total magnetization       =    57.11 Bohr mag/cell
     absolute magnetization    =    61.05 Bohr mag/cell

     iteration # 40     ecut=    54.00 Ry     beta= 0.70
     Davidson diagonalization with overlap
     ethr =  7.79E-07,  avg # of iterations =  1.8

     negative rho (up, down):  0.000E+00 3.133E-03

     total cpu time spent up to now is     5455.9 secs

     total energy              =   -9265.39764850 Ry
     estimated scf accuracy    <       0.00437728 Ry

     total magnetization       =    57.20 Bohr mag/cell
     absolute magnetization    =    61.17 Bohr mag/cell

     iteration # 41     ecut=    54.00 Ry     beta= 0.70
     Davidson diagonalization with overlap
     ethr =  7.79E-07,  avg # of iterations =  2.8

     negative rho (up, down):  0.000E+00 3.143E-03

     total cpu time spent up to now is     5588.9 secs

     total energy              =   -9265.39702406 Ry
     estimated scf accuracy    <       0.01563648 Ry

     total magnetization       =    57.30 Bohr mag/cell
     absolute magnetization    =    61.30 Bohr mag/cell

     iteration # 42     ecut=    54.00 Ry     beta= 0.70
     Davidson diagonalization with overlap
     ethr =  7.79E-07,  avg # of iterations =  2.2

     negative rho (up, down):  0.000E+00 3.150E-03

     total cpu time spent up to now is     5713.7 secs

     total energy              =   -9265.39777463 Ry
     estimated scf accuracy    <       0.00222252 Ry

     total magnetization       =    57.37 Bohr mag/cell
     absolute magnetization    =    61.38 Bohr mag/cell

     iteration # 43     ecut=    54.00 Ry     beta= 0.70
     Davidson diagonalization with overlap
     ethr =  4.79E-07,  avg # of iterations =  2.3

     negative rho (up, down):  0.000E+00 3.146E-03

     total cpu time spent up to now is     5844.9 secs

     total energy              =   -9265.39722482 Ry
     estimated scf accuracy    <       0.01567772 Ry

     total magnetization       =    57.48 Bohr mag/cell
     absolute magnetization    =    61.48 Bohr mag/cell

     iteration # 44     ecut=    54.00 Ry     beta= 0.70
     Davidson diagonalization with overlap
     ethr =  4.79E-07,  avg # of iterations =  2.2

     negative rho (up, down):  0.000E+00 3.168E-03

     total cpu time spent up to now is     5974.4 secs

     total energy              =   -9265.39727171 Ry
     estimated scf accuracy    <       0.00949284 Ry

     total magnetization       =    57.46 Bohr mag/cell
     absolute magnetization    =    61.47 Bohr mag/cell

     iteration # 45     ecut=    54.00 Ry     beta= 0.70
     Davidson diagonalization with overlap
     ethr =  4.79E-07,  avg # of iterations =  4.2

     negative rho (up, down):  0.000E+00 3.164E-03

     total cpu time spent up to now is     6127.7 secs

     total energy              =   -9265.39365549 Ry
     estimated scf accuracy    <       0.11106545 Ry

     total magnetization       =    57.21 Bohr mag/cell
     absolute magnetization    =    61.25 Bohr mag/cell

     iteration # 46     ecut=    54.00 Ry     beta= 0.70
     Davidson diagonalization with overlap
     ethr =  4.79E-07,  avg # of iterations =  4.0

     negative rho (up, down):  0.000E+00 3.182E-03

     total cpu time spent up to now is     6277.5 secs

     total energy              =   -9265.39786977 Ry
     estimated scf accuracy    <       0.00083242 Ry

     total magnetization       =    57.42 Bohr mag/cell
     absolute magnetization    =    61.45 Bohr mag/cell

     iteration # 47     ecut=    54.00 Ry     beta= 0.70
     Davidson diagonalization with overlap
     ethr =  1.79E-07,  avg # of iterations =  3.6

     negative rho (up, down):  0.000E+00 3.167E-03

     total cpu time spent up to now is     6421.4 secs

     total energy              =   -9265.39728513 Ry
     estimated scf accuracy    <       0.02791397 Ry

     total magnetization       =    57.42 Bohr mag/cell
     absolute magnetization    =    61.47 Bohr mag/cell

     iteration # 48     ecut=    54.00 Ry     beta= 0.70
     Davidson diagonalization with overlap
     ethr =  1.79E-07,  avg # of iterations =  3.3

     negative rho (up, down):  0.000E+00 3.158E-03

     total cpu time spent up to now is     6557.5 secs

     total energy              =   -9265.39800147 Ry
     estimated scf accuracy    <       0.00010239 Ry

     total magnetization       =    57.45 Bohr mag/cell
     absolute magnetization    =    61.47 Bohr mag/cell

     iteration # 49     ecut=    54.00 Ry     beta= 0.70
     Davidson diagonalization with overlap
     ethr =  2.21E-08,  avg # of iterations =  4.1

     negative rho (up, down):  0.000E+00 3.165E-03

     total cpu time spent up to now is     6707.2 secs

     total energy              =   -9265.39795362 Ry
     estimated scf accuracy    <       0.00224110 Ry

     total magnetization       =    57.44 Bohr mag/cell
     absolute magnetization    =    61.46 Bohr mag/cell

     iteration # 50     ecut=    54.00 Ry     beta= 0.70
     Davidson diagonalization with overlap
     ethr =  2.21E-08,  avg # of iterations =  3.9

     negative rho (up, down):  0.000E+00 3.167E-03

     total cpu time spent up to now is     6853.9 secs

     total energy              =   -9265.39801790 Ry
     estimated scf accuracy    <       0.00037189 Ry

     total magnetization       =    57.42 Bohr mag/cell
     absolute magnetization    =    61.45 Bohr mag/cell

     iteration # 51     ecut=    54.00 Ry     beta= 0.70
     Davidson diagonalization with overlap
     ethr =  2.21E-08,  avg # of iterations =  2.4

     negative rho (up, down):  0.000E+00 3.167E-03

     total cpu time spent up to now is     6985.8 secs

     total energy              =   -9265.39803091 Ry
     estimated scf accuracy    <       0.00017835 Ry

     total magnetization       =    57.45 Bohr mag/cell
     absolute magnetization    =    61.47 Bohr mag/cell

     iteration # 52     ecut=    54.00 Ry     beta= 0.70
     Davidson diagonalization with overlap
     ethr =  2.21E-08,  avg # of iterations =  2.0

     negative rho (up, down):  0.000E+00 3.168E-03

     total cpu time spent up to now is     7108.7 secs

     total energy              =   -9265.39804031 Ry
     estimated scf accuracy    <       0.00010358 Ry

     total magnetization       =    57.45 Bohr mag/cell
     absolute magnetization    =    61.48 Bohr mag/cell

     iteration # 53     ecut=    54.00 Ry     beta= 0.70
     Davidson diagonalization with overlap
     ethr =  2.21E-08,  avg # of iterations =  1.6

     negative rho (up, down):  0.000E+00 3.168E-03

     total cpu time spent up to now is     7224.1 secs

     total energy              =   -9265.39804563 Ry
     estimated scf accuracy    <       0.00002391 Ry

     total magnetization       =    57.46 Bohr mag/cell
     absolute magnetization    =    61.48 Bohr mag/cell

     iteration # 54     ecut=    54.00 Ry     beta= 0.70
     Davidson diagonalization with overlap
     ethr =  5.15E-09,  avg # of iterations =  1.0

     negative rho (up, down):  0.000E+00 3.171E-03

     total cpu time spent up to now is     7331.7 secs

     total energy              =   -9265.39804617 Ry
     estimated scf accuracy    <       0.00001599 Ry

     total magnetization       =    57.45 Bohr mag/cell
     absolute magnetization    =    61.48 Bohr mag/cell

     iteration # 55     ecut=    54.00 Ry     beta= 0.70
     Davidson diagonalization with overlap
     ethr =  3.45E-09,  avg # of iterations =  2.8

     negative rho (up, down):  0.000E+00 3.170E-03

     total cpu time spent up to now is     7466.2 secs

     total energy              =   -9265.39804150 Ry
     estimated scf accuracy    <       0.00010562 Ry

     total magnetization       =    57.46 Bohr mag/cell
     absolute magnetization    =    61.49 Bohr mag/cell

     iteration # 56     ecut=    54.00 Ry     beta= 0.70
     Davidson diagonalization with overlap
     ethr =  3.45E-09,  avg # of iterations =  2.5

     negative rho (up, down):  0.000E+00 3.171E-03

     total cpu time spent up to now is     7597.3 secs

     total energy              =   -9265.39804400 Ry
     estimated scf accuracy    <       0.00004001 Ry

     total magnetization       =    57.46 Bohr mag/cell
     absolute magnetization    =    61.49 Bohr mag/cell

     iteration # 57     ecut=    54.00 Ry     beta= 0.70
     Davidson diagonalization with overlap
     ethr =  3.45E-09,  avg # of iterations =  3.9

     negative rho (up, down):  0.000E+00 3.170E-03

     total cpu time spent up to now is     7744.6 secs

     total energy              =   -9265.39802510 Ry
     estimated scf accuracy    <       0.00069881 Ry

     total magnetization       =    57.45 Bohr mag/cell
     absolute magnetization    =    61.48 Bohr mag/cell

     iteration # 58     ecut=    54.00 Ry     beta= 0.70
     Davidson diagonalization with overlap
     ethr =  3.45E-09,  avg # of iterations =  3.8

     negative rho (up, down):  0.000E+00 3.172E-03

     total cpu time spent up to now is     7888.9 secs

     total energy              =   -9265.39804733 Ry
     estimated scf accuracy    <       0.00000481 Ry

     total magnetization       =    57.46 Bohr mag/cell
     absolute magnetization    =    61.49 Bohr mag/cell

     iteration # 59     ecut=    54.00 Ry     beta= 0.70
     Davidson diagonalization with overlap
     ethr =  1.04E-09,  avg # of iterations =  4.1

     negative rho (up, down):  0.000E+00 3.172E-03

     total cpu time spent up to now is     8037.1 secs

     total energy              =   -9265.39804295 Ry
     estimated scf accuracy    <       0.00015408 Ry

     total magnetization       =    57.46 Bohr mag/cell
     absolute magnetization    =    61.49 Bohr mag/cell

     iteration # 60     ecut=    54.00 Ry     beta= 0.70
     Davidson diagonalization with overlap
     ethr =  1.04E-09,  avg # of iterations =  3.4

     negative rho (up, down):  0.000E+00 3.173E-03

     total cpu time spent up to now is     8176.5 secs

     total energy              =   -9265.39804794 Ry
     estimated scf accuracy    <       0.00000347 Ry

     total magnetization       =    57.47 Bohr mag/cell
     absolute magnetization    =    61.50 Bohr mag/cell

     iteration # 61     ecut=    54.00 Ry     beta= 0.70
     Davidson diagonalization with overlap
     ethr =  7.49E-10,  avg # of iterations =  1.8

     negative rho (up, down):  0.000E+00 3.173E-03

     total cpu time spent up to now is     8293.6 secs

     total energy              =   -9265.39804803 Ry
     estimated scf accuracy    <       0.00000265 Ry

     total magnetization       =    57.47 Bohr mag/cell
     absolute magnetization    =    61.50 Bohr mag/cell

     iteration # 62     ecut=    54.00 Ry     beta= 0.70
     Davidson diagonalization with overlap
     ethr =  5.71E-10,  avg # of iterations =  2.0

     negative rho (up, down):  0.000E+00 3.173E-03

     total cpu time spent up to now is     8417.9 secs

     total energy              =   -9265.39804777 Ry
     estimated scf accuracy    <       0.00000628 Ry

     total magnetization       =    57.47 Bohr mag/cell
     absolute magnetization    =    61.50 Bohr mag/cell

     iteration # 63     ecut=    54.00 Ry     beta= 0.70
     Davidson diagonalization with overlap
     ethr =  5.71E-10,  avg # of iterations =  2.0

     negative rho (up, down):  0.000E+00 3.173E-03

     total cpu time spent up to now is     8542.4 secs

     total energy              =   -9265.39804804 Ry
     estimated scf accuracy    <       0.00000236 Ry

     total magnetization       =    57.47 Bohr mag/cell
     absolute magnetization    =    61.50 Bohr mag/cell

     iteration # 64     ecut=    54.00 Ry     beta= 0.70
     Davidson diagonalization with overlap
     ethr =  5.08E-10,  avg # of iterations =  1.7

     negative rho (up, down):  0.000E+00 3.173E-03

     total cpu time spent up to now is     8660.3 secs

     total energy              =   -9265.39804816 Ry
     estimated scf accuracy    <       0.00000157 Ry

     total magnetization       =    57.47 Bohr mag/cell
     absolute magnetization    =    61.50 Bohr mag/cell

     iteration # 65     ecut=    54.00 Ry     beta= 0.70
     Davidson diagonalization with overlap
     ethr =  3.38E-10,  avg # of iterations =  2.0

     negative rho (up, down):  0.000E+00 3.173E-03

     total cpu time spent up to now is     8782.6 secs

     total energy              =   -9265.39804817 Ry
     estimated scf accuracy    <       0.00000286 Ry

     total magnetization       =    57.47 Bohr mag/cell
     absolute magnetization    =    61.51 Bohr mag/cell

     iteration # 66     ecut=    54.00 Ry     beta= 0.70
     Davidson diagonalization with overlap
     ethr =  3.38E-10,  avg # of iterations =  1.1

     negative rho (up, down):  0.000E+00 3.174E-03

     total cpu time spent up to now is     8891.4 secs

     total energy              =   -9265.39804818 Ry
     estimated scf accuracy    <       0.00000141 Ry

     total magnetization       =    57.47 Bohr mag/cell
     absolute magnetization    =    61.50 Bohr mag/cell

     iteration # 67     ecut=    54.00 Ry     beta= 0.70
     Davidson diagonalization with overlap
     ethr =  3.05E-10,  avg # of iterations =  1.9

     negative rho (up, down):  0.000E+00 3.173E-03

     total cpu time spent up to now is     9015.1 secs

     total energy              =   -9265.39804791 Ry
     estimated scf accuracy    <       0.00001163 Ry

     total magnetization       =    57.47 Bohr mag/cell
     absolute magnetization    =    61.50 Bohr mag/cell

     iteration # 68     ecut=    54.00 Ry     beta= 0.70
     Davidson diagonalization with overlap
     ethr =  3.05E-10,  avg # of iterations =  2.0

     negative rho (up, down):  0.000E+00 3.173E-03

     total cpu time spent up to now is     9143.3 secs

     total energy              =   -9265.39804807 Ry
     estimated scf accuracy    <       0.00000534 Ry

     total magnetization       =    57.47 Bohr mag/cell
     absolute magnetization    =    61.50 Bohr mag/cell

     iteration # 69     ecut=    54.00 Ry     beta= 0.70
     Davidson diagonalization with overlap
     ethr =  3.05E-10,  avg # of iterations =  2.0

     negative rho (up, down):  0.000E+00 3.173E-03

     total cpu time spent up to now is     9264.6 secs

     total energy              =   -9265.39804817 Ry
     estimated scf accuracy    <       0.00000263 Ry

     total magnetization       =    57.47 Bohr mag/cell
     absolute magnetization    =    61.50 Bohr mag/cell

     iteration # 70     ecut=    54.00 Ry     beta= 0.70
     Davidson diagonalization with overlap
     ethr =  3.05E-10,  avg # of iterations =  1.5

     negative rho (up, down):  0.000E+00 3.173E-03

     total cpu time spent up to now is     9377.9 secs

     total energy              =   -9265.39804822 Ry
     estimated scf accuracy    <       0.00000076 Ry

     total magnetization       =    57.47 Bohr mag/cell
     absolute magnetization    =    61.50 Bohr mag/cell

     iteration # 71     ecut=    54.00 Ry     beta= 0.70
     Davidson diagonalization with overlap
     ethr =  1.65E-10,  avg # of iterations =  2.3

     negative rho (up, down):  0.000E+00 3.174E-03

     total cpu time spent up to now is     9506.7 secs

     total energy              =   -9265.39804805 Ry
     estimated scf accuracy    <       0.00000685 Ry

     total magnetization       =    57.47 Bohr mag/cell
     absolute magnetization    =    61.50 Bohr mag/cell

     iteration # 72     ecut=    54.00 Ry     beta= 0.70
     Davidson diagonalization with overlap
     ethr =  1.65E-10,  avg # of iterations =  2.2

     negative rho (up, down):  0.000E+00 3.174E-03

     total cpu time spent up to now is     9634.0 secs

     total energy              =   -9265.39804824 Ry
     estimated scf accuracy    <       0.00000083 Ry

     total magnetization       =    57.47 Bohr mag/cell
     absolute magnetization    =    61.50 Bohr mag/cell

     iteration # 73     ecut=    54.00 Ry     beta= 0.70
     Davidson diagonalization with overlap
     ethr =  1.65E-10,  avg # of iterations =  1.2

     negative rho (up, down):  0.000E+00 3.174E-03

     total cpu time spent up to now is     9744.3 secs

     total energy              =   -9265.39804827 Ry
     estimated scf accuracy    <       0.00000008 Ry

     total magnetization       =    57.47 Bohr mag/cell
     absolute magnetization    =    61.50 Bohr mag/cell

     iteration # 74     ecut=    54.00 Ry     beta= 0.70
     Davidson diagonalization with overlap
     ethr =  1.79E-11,  avg # of iterations =  4.1

     negative rho (up, down):  0.000E+00 3.174E-03

     total cpu time spent up to now is     9895.2 secs

     total energy              =   -9265.39804819 Ry
     estimated scf accuracy    <       0.00000197 Ry

     total magnetization       =    57.47 Bohr mag/cell
     absolute magnetization    =    61.50 Bohr mag/cell

     iteration # 75     ecut=    54.00 Ry     beta= 0.70
     Davidson diagonalization with overlap
     ethr =  1.79E-11,  avg # of iterations =  3.9

     negative rho (up, down):  0.000E+00 3.174E-03

     total cpu time spent up to now is    10043.2 secs

     total energy              =   -9265.39804829 Ry
     estimated scf accuracy    <       0.00000008 Ry

     total magnetization       =    57.47 Bohr mag/cell
     absolute magnetization    =    61.50 Bohr mag/cell

     iteration # 76     ecut=    54.00 Ry     beta= 0.70
     Davidson diagonalization with overlap
     ethr =  1.78E-11,  avg # of iterations =  2.0

     negative rho (up, down):  0.000E+00 3.174E-03

     total cpu time spent up to now is    10172.4 secs

     total energy              =   -9265.39804827 Ry
     estimated scf accuracy    <       0.00000043 Ry

     total magnetization       =    57.47 Bohr mag/cell
     absolute magnetization    =    61.50 Bohr mag/cell

     iteration # 77     ecut=    54.00 Ry     beta= 0.70
     Davidson diagonalization with overlap
     ethr =  1.78E-11,  avg # of iterations =  2.0

     negative rho (up, down):  0.000E+00 3.174E-03

     total cpu time spent up to now is    10297.8 secs

     total energy              =   -9265.39804828 Ry
     estimated scf accuracy    <       0.00000020 Ry

     total magnetization       =    57.47 Bohr mag/cell
     absolute magnetization    =    61.50 Bohr mag/cell

     iteration # 78     ecut=    54.00 Ry     beta= 0.70
     Davidson diagonalization with overlap
     ethr =  1.78E-11,  avg # of iterations =  2.4

     negative rho (up, down):  0.000E+00 3.174E-03

     total cpu time spent up to now is    10432.5 secs

     total energy              =   -9265.39804826 Ry
     estimated scf accuracy    <       0.00000078 Ry

     total magnetization       =    57.47 Bohr mag/cell
     absolute magnetization    =    61.50 Bohr mag/cell

     iteration # 79     ecut=    54.00 Ry     beta= 0.70
     Davidson diagonalization with overlap
     ethr =  1.78E-11,  avg # of iterations =  2.2

     negative rho (up, down):  0.000E+00 3.174E-03

     total cpu time spent up to now is    10565.0 secs

     total energy              =   -9265.39804828 Ry
     estimated scf accuracy    <       0.00000022 Ry

     total magnetization       =    57.47 Bohr mag/cell
     absolute magnetization    =    61.50 Bohr mag/cell

     iteration # 80     ecut=    54.00 Ry     beta= 0.70
     Davidson diagonalization with overlap
     ethr =  1.78E-11,  avg # of iterations =  1.9

     negative rho (up, down):  0.000E+00 3.174E-03

     total cpu time spent up to now is    10685.7 secs

     total energy              =   -9265.39804829 Ry
     estimated scf accuracy    <       0.00000004 Ry

     total magnetization       =    57.47 Bohr mag/cell
     absolute magnetization    =    61.50 Bohr mag/cell

     iteration # 81     ecut=    54.00 Ry     beta= 0.70
     Davidson diagonalization with overlap
     ethr =  9.52E-12,  avg # of iterations =  1.8

     negative rho (up, down):  0.000E+00 3.174E-03

     total cpu time spent up to now is    10803.6 secs

     total energy              =   -9265.39804829 Ry
     estimated scf accuracy    <       0.00000004 Ry

     total magnetization       =    57.47 Bohr mag/cell
     absolute magnetization    =    61.51 Bohr mag/cell

     iteration # 82     ecut=    54.00 Ry     beta= 0.70
     Davidson diagonalization with overlap
     ethr =  8.55E-12,  avg # of iterations =  1.9

     negative rho (up, down):  0.000E+00 3.174E-03

     total cpu time spent up to now is    10926.1 secs

     total energy              =   -9265.39804829 Ry
     estimated scf accuracy    <       0.00000024 Ry

     total magnetization       =    57.47 Bohr mag/cell
     absolute magnetization    =    61.51 Bohr mag/cell

     iteration # 83     ecut=    54.00 Ry     beta= 0.70
     Davidson diagonalization with overlap
     ethr =  8.55E-12,  avg # of iterations =  2.2

     negative rho (up, down):  0.000E+00 3.174E-03

     total cpu time spent up to now is    11052.8 secs

     total energy              =   -9265.39804829 Ry
     estimated scf accuracy    <       0.00000017 Ry

     total magnetization       =    57.47 Bohr mag/cell
     absolute magnetization    =    61.51 Bohr mag/cell

     iteration # 84     ecut=    54.00 Ry     beta= 0.70
     Davidson diagonalization with overlap
     ethr =  8.55E-12,  avg # of iterations =  2.3

     negative rho (up, down):  0.000E+00 3.174E-03

     total cpu time spent up to now is    11181.5 secs

     total energy              =   -9265.39804829 Ry
     estimated scf accuracy    <       0.00000019 Ry

     total magnetization       =    57.47 Bohr mag/cell
     absolute magnetization    =    61.51 Bohr mag/cell

     iteration # 85     ecut=    54.00 Ry     beta= 0.70
     Davidson diagonalization with overlap
     ethr =  8.55E-12,  avg # of iterations =  2.0

     negative rho (up, down):  0.000E+00 3.174E-03
 
     Magnetic moment per site  (integrated on atomic sphere of radius R)
     atom   1 (R=0.179)  charge= 14.3929  magn=  2.1981
     atom   2 (R=0.179)  charge= 14.3857  magn=  2.4479
     atom   3 (R=0.179)  charge= 14.3899  magn=  2.3900
     atom   4 (R=0.179)  charge= 14.3899  magn=  2.3900
     atom   5 (R=0.179)  charge= 14.4085  magn=  2.1276
     atom   6 (R=0.179)  charge= 14.4085  magn=  2.1276
     atom   7 (R=0.179)  charge= 14.4085  magn=  2.1276
     atom   8 (R=0.179)  charge= 14.4085  magn=  2.1276
     atom   9 (R=0.179)  charge= 14.4085  magn=  2.1276
     atom  10 (R=0.179)  charge= 14.4085  magn=  2.1276
     atom  11 (R=0.179)  charge= 14.4085  magn=  2.1276
     atom  12 (R=0.179)  charge= 14.4085  magn=  2.1276
     atom  13 (R=0.179)  charge= 14.3781  magn=  2.3613
     atom  14 (R=0.179)  charge=  2.0564  magn= -0.0944
     atom  15 (R=0.179)  charge= 14.3852  magn=  2.3474
     atom  16 (R=0.179)  charge= 14.3852  magn=  2.3474
     atom  17 (R=0.179)  charge= 14.3928  magn=  2.3038
     atom  18 (R=0.179)  charge= 14.3847  magn=  2.4909
     atom  19 (R=0.179)  charge= 14.3899  magn=  2.3900
     atom  20 (R=0.179)  charge= 14.3899  magn=  2.3900
     atom  21 (R=0.179)  charge= 14.4544  magn=  1.7033
     atom  22 (R=0.179)  charge= 14.4544  magn=  1.7033
     atom  23 (R=0.179)  charge= 14.4544  magn=  1.7033
     atom  24 (R=0.179)  charge= 14.4544  magn=  1.7033
     atom  25 (R=0.179)  charge= 14.4544  magn=  1.7033
     atom  26 (R=0.179)  charge= 14.4544  magn=  1.7033
     atom  27 (R=0.179)  charge= 14.4544  magn=  1.7033
     atom  28 (R=0.179)  charge= 14.4544  magn=  1.7033
     atom  29 (R=0.179)  charge= 14.3781  magn=  2.3613
     atom  30 (R=0.179)  charge=  2.0564  magn= -0.0944
     atom  31 (R=0.179)  charge=  2.0540  magn= -0.0803
     atom  32 (R=0.179)  charge=  2.0540  magn= -0.0803

     total cpu time spent up to now is    11307.0 secs

     End of self-consistent calculation

 ------ SPIN UP ------------


          k = 0.0000 0.0000 0.0000 ( 16353 PWs)   bands (ev):

   -70.5408 -70.4898 -70.3665 -70.3657 -70.3624 -70.3623 -70.2854 -70.2848
   -70.2337 -70.2023 -70.1931 -70.1790 -70.0718 -70.0718 -70.0708 -70.0691
   -70.0691 -70.0663 -70.0641 -70.0564 -69.7788 -69.7777 -69.7769 -69.7769
   -69.7741 -69.7741 -69.7713 -69.7689 -36.6152 -36.6080 -36.6080 -36.5976
   -36.5976 -36.5148 -36.5148 -36.5100 -36.5100 -36.4829 -36.4770 -36.4611
   -36.4428 -36.4428 -36.4419 -36.4244 -36.4198 -36.4198 -36.4158 -36.3717
   -36.3556 -36.3556 -36.3495 -36.3257 -36.3257 -36.3132 -36.3132 -36.3116
   -36.3116 -36.2986 -36.2916 -36.2504 -36.2504 -36.2303 -36.1946 -36.1946
   -36.1383 -36.1342 -36.1279 -36.1219 -36.1176 -36.1176 -36.1088 -36.0840
   -36.0829 -36.0829 -36.0811 -36.0771 -36.0714 -36.0682 -36.0682 -36.0568
   -36.0307 -36.0307 -36.0289 -36.0256 -36.0256 -36.0246 -36.0110 -36.0110
   -35.8697 -35.8607 -35.8565 -35.8560 -35.8560 -35.8454 -35.8454 -35.8449
   -35.8419 -35.8334 -35.8181 -35.8181 -35.8096 -35.8086 -35.8077 -35.8055
   -35.8031 -35.8029 -35.8029 -35.8020 -35.7996 -35.7996 -35.7966 -35.7966
     7.0550   8.1827   8.5905   9.2573  10.7192  11.5538  11.8839  11.8839
    12.2636  12.4138  12.6259  12.6259  12.9417  12.9542  12.9542  12.9804
    13.0427  13.0600  13.0893  13.0893  13.1071  13.1289  13.1589  13.2181
    13.2735  13.3736  13.6352  13.7540  13.8110  13.8138  13.8426  13.8879
    13.8879  13.9109  14.0124  14.1227  14.1902  14.3166  14.3166  14.3490
    14.3490  14.4693  14.4693  14.5407  14.5573  14.6963  14.6963  14.6964
    14.8041  14.8041  14.8347  14.8418  14.8981  14.8981  14.9269  14.9445
    14.9472  14.9472  14.9616  14.9616  14.9672  15.0706  15.0706  15.0991
    15.1079  15.2121  15.2121  15.2563  15.2563  15.4609  15.4799  15.5812
    15.5812  15.6151  15.6151  15.6447  15.6995  15.7217  15.7944  15.7944
    15.8884  15.9267  15.9267  15.9349  16.0026  16.0026  16.1076  16.1076
    16.1771  16.2314  16.2605  16.3086  16.3862  16.4199  16.4306  16.4859
    16.5073  16.5073  16.5291  16.6078  16.6078  16.6971  16.6971  16.7007
    16.7391  16.7505  16.8153  16.8372  16.8652  16.8652  16.8670  16.8820
    16.8830  16.8934  16.9037  16.9156  16.9156  16.9200  16.9361  16.9612
    16.9624  16.9782  16.9968  16.9969  17.0744  17.0931  17.1258  17.1908
    17.1908  17.2377  17.2377  17.2851  17.3197  17.3307  17.3355  17.3555
    17.3601  17.3601  17.3918  17.5849  17.5849  17.6243  17.6243  17.6275
    17.6372  17.7448  17.7911  17.7971  17.8148  17.8148  18.0274  18.0274
    18.0296  18.0688  18.0863  18.0863  18.1096  18.1102  18.1239  18.2158
    18.2158  18.3243  18.3243  20.6361  20.6361  20.6963

          k = 0.0000 0.0000 0.2000 ( 16335 PWs)   bands (ev):

   -70.5408 -70.4898 -70.3658 -70.3655 -70.3627 -70.3627 -70.2853 -70.2850
   -70.2331 -70.2019 -70.1941 -70.1794 -70.0712 -70.0709 -70.0702 -70.0692
   -70.0686 -70.0668 -70.0641 -70.0578 -69.7788 -69.7775 -69.7771 -69.7763
   -69.7745 -69.7736 -69.7718 -69.7689 -36.6146 -36.6076 -36.6071 -36.5981
   -36.5976 -36.5137 -36.5131 -36.5115 -36.5096 -36.4770 -36.4757 -36.4593
   -36.4409 -36.4365 -36.4343 -36.4271 -36.4197 -36.4189 -36.4100 -36.3739
   -36.3581 -36.3577 -36.3467 -36.3328 -36.3303 -36.3222 -36.3167 -36.3119
   -36.3084 -36.2932 -36.2875 -36.2666 -36.2476 -36.2389 -36.2187 -36.2037
   -36.1285 -36.1236 -36.1200 -36.1192 -36.1054 -36.1028 -36.1024 -36.0893
   -36.0882 -36.0842 -36.0796 -36.0782 -36.0737 -36.0715 -36.0671 -36.0502
   -36.0350 -36.0293 -36.0292 -36.0287 -36.0286 -36.0212 -36.0168 -36.0146
   -35.8658 -35.8573 -35.8553 -35.8541 -35.8518 -35.8494 -35.8425 -35.8404
   -35.8399 -35.8337 -35.8211 -35.8199 -35.8125 -35.8119 -35.8082 -35.8074
   -35.8060 -35.8053 -35.8028 -35.8016 -35.8006 -35.7990 -35.7985 -35.7971
     7.2183   8.2806   8.6566   9.0997  10.7133  11.4499  11.7325  12.0048
    12.1585  12.2009  12.5888  12.6865  12.7331  12.9633  13.0158  13.0382
    13.0626  13.0849  13.1529  13.1769  13.1975  13.2269  13.2616  13.3842
    13.4034  13.4758  13.5967  13.7182  13.7725  13.8214  13.8854  13.9114
    13.9284  14.0057  14.0946  14.1291  14.1428  14.3526  14.3556  14.3576
    14.4321  14.4499  14.4628  14.4868  14.5338  14.5633  14.5949  14.6056
    14.7287  14.7347  14.7483  14.7584  14.7924  14.8073  14.8125  14.8144
    14.8908  14.9266  14.9320  15.0240  15.0519  15.1051  15.1207  15.1656
    15.1710  15.2324  15.2329  15.3552  15.3661  15.4035  15.4166  15.4630
    15.4905  15.5464  15.6134  15.6363  15.6762  15.6974  15.7286  15.7455
    15.8052  15.8469  15.8533  15.8561  16.0324  16.1676  16.1944  16.2076
    16.2133  16.2374  16.2732  16.3074  16.3240  16.3302  16.3638  16.3667
    16.3804  16.4074  16.4470  16.5077  16.5125  16.5174  16.5235  16.5710
    16.6072  16.6247  16.6617  16.6695  16.6970  16.7132  16.7742  16.7830
    16.7986  16.8294  16.8590  16.8639  16.8800  16.8883  16.8925  16.9363
    16.9664  17.0341  17.0419  17.0634  17.0788  17.1056  17.1622  17.1635
    17.1807  17.1991  17.1999  17.2276  17.2283  17.2982  17.3106  17.3249
    17.4059  17.4113  17.4426  17.4780  17.5389  17.6163  17.6413  17.6800
    17.7152  17.7179  17.7498  17.7709  17.7760  17.9713  17.9742  18.0211
    18.0754  18.1115  18.1152  18.1523  18.2995  18.4223  18.4909  18.6952
    19.0689  19.2053  19.4310  20.1778  20.2816  20.3058

          k = 0.0000 0.0000 0.4000 ( 16329 PWs)   bands (ev):

   -70.5407 -70.4898 -70.3647 -70.3646 -70.3635 -70.3634 -70.2853 -70.2851
   -70.2321 -70.2009 -70.1959 -70.1803 -70.0708 -70.0699 -70.0693 -70.0683
   -70.0672 -70.0663 -70.0656 -70.0609 -69.7783 -69.7774 -69.7766 -69.7753
   -69.7749 -69.7733 -69.7721 -69.7705 -36.6138 -36.6068 -36.6055 -36.5990
   -36.5978 -36.5133 -36.5120 -36.5102 -36.5089 -36.4769 -36.4590 -36.4523
   -36.4425 -36.4411 -36.4250 -36.4229 -36.4175 -36.4061 -36.3928 -36.3747
   -36.3736 -36.3614 -36.3555 -36.3522 -36.3371 -36.3247 -36.3164 -36.3123
   -36.2959 -36.2864 -36.2844 -36.2840 -36.2563 -36.2535 -36.2383 -36.2219
   -36.1200 -36.1122 -36.1095 -36.1050 -36.1002 -36.0963 -36.0932 -36.0913
   -36.0885 -36.0803 -36.0798 -36.0774 -36.0714 -36.0659 -36.0538 -36.0528
   -36.0482 -36.0368 -36.0365 -36.0307 -36.0299 -36.0268 -36.0197 -36.0144
   -35.8603 -35.8543 -35.8539 -35.8508 -35.8441 -35.8409 -35.8359 -35.8358
   -35.8344 -35.8309 -35.8267 -35.8249 -35.8248 -35.8203 -35.8183 -35.8164
   -35.8072 -35.8049 -35.8037 -35.8021 -35.7999 -35.7983 -35.7980 -35.7980
     7.6480   8.4489   8.4689   8.9606  10.7543  11.0662  11.5203  12.0073
    12.2240  12.2786  12.4735  12.7875  12.8664  12.9348  12.9397  12.9875
    13.1002  13.1339  13.2712  13.3547  13.3923  13.4180  13.4897  13.5340
    13.5821  13.6026  13.6056  13.6512  13.7259  13.8897  13.9089  13.9704
    14.0015  14.0172  14.0515  14.0636  14.0898  14.1349  14.2342  14.2402
    14.4325  14.4367  14.5140  14.5255  14.5273  14.5657  14.5758  14.6042
    14.6644  14.6677  14.6880  14.7200  14.7492  14.7869  14.8118  14.8243
    14.8945  14.9069  14.9257  14.9827  15.0305  15.0754  15.1232  15.1419
    15.1607  15.1892  15.1999  15.2639  15.2642  15.2684  15.2788  15.3301
    15.3543  15.4424  15.4733  15.5143  15.5384  15.5715  15.6385  15.6734
    15.6790  15.7586  15.8240  15.8243  15.8858  15.9319  15.9852  15.9991
    16.0338  16.0761  16.2530  16.2551  16.2961  16.3164  16.3328  16.3994
    16.4052  16.4082  16.4563  16.4579  16.4658  16.4837  16.5252  16.5361
    16.5363  16.5606  16.5725  16.5910  16.6165  16.6420  16.7079  16.7521
    16.7685  16.7829  16.8026  16.8132  16.8264  16.8370  16.8612  16.8862
    16.9358  16.9952  17.0051  17.0229  17.0271  17.0679  17.0688  17.1291
    17.1574  17.1645  17.1889  17.2400  17.2726  17.2993  17.3098  17.3279
    17.3572  17.4084  17.4410  17.5059  17.5451  17.5575  17.6327  17.7218
    17.7358  17.7643  17.8194  17.8792  17.8829  17.9196  17.9961  18.0676
    18.1740  18.1926  18.6557  18.7158  18.8627  18.9536  19.4756  19.5078
    19.6397  19.6878  19.7105  19.8897  20.2207  20.6974

          k = 0.0000 0.2000 0.2000 ( 16378 PWs)   bands (ev):

   -70.5408 -70.4898 -70.3655 -70.3652 -70.3631 -70.3629 -70.2855 -70.2851
   -70.2327 -70.2014 -70.1949 -70.1802 -70.0708 -70.0701 -70.0698 -70.0688
   -70.0688 -70.0672 -70.0647 -70.0588 -69.7785 -69.7772 -69.7768 -69.7765
   -69.7740 -69.7739 -69.7723 -69.7696 -36.6142 -36.6076 -36.6063 -36.5984
   -36.5974 -36.5143 -36.5122 -36.5111 -36.5089 -36.4768 -36.4703 -36.4567
   -36.4394 -36.4331 -36.4295 -36.4230 -36.4221 -36.4125 -36.4061 -36.3764
   -36.3632 -36.3536 -36.3480 -36.3347 -36.3256 -36.3255 -36.3215 -36.3208
   -36.3108 -36.2907 -36.2851 -36.2650 -36.2588 -36.2461 -36.2239 -36.2232
   -36.1215 -36.1149 -36.1133 -36.1088 -36.1077 -36.1055 -36.0934 -36.0931
   -36.0882 -36.0797 -36.0788 -36.0745 -36.0734 -36.0731 -36.0715 -36.0485
   -36.0384 -36.0359 -36.0312 -36.0269 -36.0260 -36.0218 -36.0210 -36.0138
   -35.8613 -35.8551 -35.8515 -35.8510 -35.8510 -35.8491 -35.8417 -35.8393
   -35.8373 -35.8343 -35.8236 -35.8216 -35.8121 -35.8113 -35.8112 -35.8091
   -35.8085 -35.8077 -35.8053 -35.8045 -35.8007 -35.7995 -35.7990 -35.7978
     7.3775   8.3758   8.7242   9.0074  10.7063  11.4657  11.7160  11.8807
    12.1126  12.1167  12.3079  12.6463  12.6911  12.9105  13.0147  13.1302
    13.1371  13.1545  13.1840  13.2119  13.2446  13.2960  13.3862  13.4073
    13.5029  13.5348  13.5953  13.7281  13.7671  13.8505  13.9750  13.9770
    14.0044  14.0816  14.0862  14.1515  14.1753  14.2478  14.3437  14.4325
    14.4330  14.4562  14.4792  14.5210  14.5253  14.5450  14.5823  14.6067
    14.6269  14.6371  14.6588  14.7193  14.7454  14.7604  14.8193  14.8204
    14.9020  14.9177  14.9366  14.9723  15.0117  15.0740  15.1479  15.1760
    15.1899  15.1927  15.2209  15.2423  15.3019  15.3369  15.3529  15.3599
    15.4399  15.4950  15.4985  15.5219  15.6330  15.6532  15.6578  15.7335
    15.7584  15.8778  15.8823  15.9582  15.9670  16.0017  16.0341  16.1268
    16.1395  16.1524  16.2076  16.2326  16.2870  16.2871  16.3443  16.3574
    16.3896  16.4266  16.4497  16.4589  16.4632  16.5136  16.5140  16.5538
    16.5828  16.5874  16.6132  16.6640  16.6743  16.7266  16.7269  16.7518
    16.7550  16.7730  16.8019  16.8276  16.8469  16.8786  16.9413  16.9828
    16.9853  17.0113  17.0114  17.0257  17.0473  17.0728  17.0755  17.1454
    17.1723  17.1737  17.1857  17.2302  17.2402  17.3096  17.3347  17.3587
    17.3677  17.3910  17.3937  17.4356  17.4890  17.4951  17.6033  17.6078
    17.6898  17.6907  17.6941  17.7770  17.7840  17.8547  17.8922  18.0525
    18.2287  18.3202  18.5096  18.6249  18.6550  18.7822  19.0203  19.1803
    19.3486  19.4128  19.5277  19.5724  20.0181  21.0677

          k = 0.0000 0.2000 0.4000 ( 16364 PWs)   bands (ev):

   -70.5408 -70.4898 -70.3647 -70.3645 -70.3636 -70.3635 -70.2855 -70.2852
   -70.2317 -70.2002 -70.1964 -70.1814 -70.0705 -70.0691 -70.0690 -70.0681
   -70.0675 -70.0664 -70.0659 -70.0618 -69.7781 -69.7772 -69.7763 -69.7752
   -69.7748 -69.7737 -69.7725 -69.7709 -36.6134 -36.6070 -36.6058 -36.5985
   -36.5975 -36.5143 -36.5133 -36.5089 -36.5078 -36.4767 -36.4565 -36.4495
   -36.4423 -36.4400 -36.4224 -36.4172 -36.4093 -36.4028 -36.3899 -36.3779
   -36.3739 -36.3658 -36.3453 -36.3422 -36.3386 -36.3335 -36.3242 -36.3154
   -36.2964 -36.2859 -36.2847 -36.2833 -36.2609 -36.2586 -36.2504 -36.2353
   -36.1131 -36.1104 -36.1071 -36.1001 -36.0990 -36.0963 -36.0941 -36.0908
   -36.0889 -36.0810 -36.0805 -36.0752 -36.0728 -36.0670 -36.0589 -36.0490
   -36.0488 -36.0465 -36.0310 -36.0308 -36.0286 -36.0226 -36.0186 -36.0162
   -35.8555 -35.8514 -35.8496 -35.8469 -35.8442 -35.8402 -35.8375 -35.8350
   -35.8333 -35.8323 -35.8275 -35.8260 -35.8240 -35.8196 -35.8177 -35.8162
   -35.8112 -35.8067 -35.8065 -35.8049 -35.8026 -35.8011 -35.7990 -35.7967
     7.7934   8.5389   8.5573   8.9381  10.8297  11.2056  11.4588  11.7745
    12.0580  12.1550  12.3302  12.5494  12.6723  12.9774  12.9946  13.1516
    13.1641  13.2256  13.2303  13.3025  13.3601  13.4572  13.5329  13.5649
    13.6148  13.6594  13.6945  13.7056  13.7923  13.8527  13.9254  13.9828
    14.0896  14.0959  14.1491  14.1791  14.1813  14.2098  14.2930  14.3231
    14.4351  14.4527  14.4637  14.5337  14.5445  14.5728  14.5945  14.6151
    14.6465  14.6525  14.6606  14.6676  14.7184  14.7346  14.7705  14.8221
    14.8524  14.9166  14.9203  14.9589  14.9716  15.0319  15.0457  15.0588
    15.0628  15.1038  15.1367  15.1903  15.2088  15.2269  15.2447  15.2890
    15.3210  15.3266  15.3441  15.4183  15.4212  15.5000  15.5164  15.5444
    15.5560  15.6974  15.7035  15.7555  15.8291  15.8589  15.9680  15.9896
    16.0353  16.1270  16.1382  16.1927  16.2587  16.2980  16.3218  16.3435
    16.4124  16.4226  16.4498  16.5008  16.5161  16.5302  16.5460  16.5694
    16.5852  16.5933  16.6212  16.6639  16.7090  16.7103  16.7479  16.7824
    16.8000  16.8028  16.8145  16.8240  16.8514  16.8654  16.8959  16.9277
    16.9394  16.9606  16.9772  16.9868  17.0123  17.0344  17.0350  17.0787
    17.0834  17.0989  17.1282  17.1602  17.1974  17.2425  17.2442  17.2510
    17.3072  17.3527  17.3788  17.5049  17.5205  17.5260  17.5726  17.6658
    17.7284  17.7713  17.7964  17.8226  17.8710  18.0985  18.1115  18.2165
    18.2297  18.6096  18.6175  18.6870  18.7413  19.0617  19.5988  19.6308
    19.7781  20.0073  20.2946  20.6885  20.7066  20.8270

          k = 0.0000 0.4000 0.4000 ( 16350 PWs)   bands (ev):

   -70.5408 -70.4898 -70.3642 -70.3641 -70.3638 -70.3638 -70.2855 -70.2855
   -70.2310 -70.1987 -70.1975 -70.1832 -70.0697 -70.0682 -70.0682 -70.0681
   -70.0668 -70.0667 -70.0664 -70.0635 -69.7772 -69.7764 -69.7758 -69.7752
   -69.7747 -69.7737 -69.7736 -69.7720 -36.6129 -36.6071 -36.6066 -36.5975
   -36.5971 -36.5165 -36.5135 -36.5080 -36.5059 -36.4763 -36.4505 -36.4447
   -36.4433 -36.4393 -36.4149 -36.4059 -36.3946 -36.3917 -36.3832 -36.3791
   -36.3753 -36.3719 -36.3576 -36.3518 -36.3486 -36.3169 -36.3146 -36.3065
   -36.3004 -36.2872 -36.2848 -36.2819 -36.2800 -36.2680 -36.2658 -36.2632
   -36.1115 -36.1023 -36.1000 -36.0994 -36.0975 -36.0955 -36.0951 -36.0878
   -36.0857 -36.0848 -36.0814 -36.0813 -36.0727 -36.0604 -36.0585 -36.0556
   -36.0536 -36.0413 -36.0347 -36.0260 -36.0231 -36.0220 -36.0200 -36.0188
   -35.8489 -35.8436 -35.8414 -35.8387 -35.8383 -35.8383 -35.8377 -35.8339
   -35.8339 -35.8328 -35.8287 -35.8280 -35.8233 -35.8226 -35.8204 -35.8202
   -35.8201 -35.8119 -35.8112 -35.8096 -35.8047 -35.8029 -35.8008 -35.7954
     8.1692   8.6740   8.7232   8.7609  10.9597  11.3002  11.4771  11.6043
    11.6395  11.6644  12.3914  12.4879  12.7619  12.8931  12.9324  13.1458
    13.1633  13.1819  13.1957  13.3053  13.4623  13.5564  13.6278  13.7288
    13.7474  13.7609  13.8110  13.8126  13.9084  13.9866  13.9873  14.0682
    14.0742  14.1674  14.1722  14.1990  14.3407  14.3664  14.3739  14.3949
    14.4492  14.5016  14.5085  14.5447  14.5613  14.6085  14.6197  14.6371
    14.6464  14.6491  14.6584  14.6695  14.6706  14.7021  14.7025  14.7455
    14.7594  14.7600  14.7634  14.7780  14.8317  14.9116  14.9181  14.9329
    14.9398  14.9732  14.9946  15.0187  15.0568  15.0603  15.1127  15.1791
    15.1998  15.2134  15.2709  15.3340  15.3372  15.3574  15.3837  15.3910
    15.3953  15.4698  15.5053  15.5060  15.8745  15.9222  15.9481  15.9668
    15.9804  16.0056  16.0109  16.0758  16.2006  16.3155  16.3289  16.3726
    16.4272  16.4551  16.5060  16.5270  16.5640  16.5936  16.6393  16.6530
    16.6601  16.6709  16.6816  16.7079  16.7567  16.7617  16.7642  16.8005
    16.8011  16.8066  16.8275  16.8289  16.8298  16.8555  16.8910  16.9045
    16.9053  16.9262  16.9337  16.9989  17.0114  17.0299  17.0379  17.0454
    17.0956  17.1354  17.1465  17.1468  17.2089  17.2226  17.2341  17.2685
    17.2800  17.3069  17.3540  17.3757  17.4065  17.4834  17.5501  17.5648
    17.6870  17.7130  17.7300  17.7920  17.8649  17.9044  18.0974  18.1332
    18.4128  18.6465  19.0207  19.0569  19.2539  19.3196  19.8175  19.9334
    20.1817  20.2746  20.5894  21.2863  21.2968  21.3386

          k = 0.1000 0.0000 0.0000 ( 16382 PWs)   bands (ev):

   -70.5408 -70.4898 -70.3664 -70.3659 -70.3624 -70.3623 -70.2854 -70.2849
   -70.2338 -70.2024 -70.1931 -70.1790 -70.0718 -70.0718 -70.0710 -70.0692
   -70.0692 -70.0664 -70.0639 -70.0566 -69.7789 -69.7779 -69.7769 -69.7769
   -69.7741 -69.7741 -69.7713 -69.7687 -36.6152 -36.6080 -36.6080 -36.5976
   -36.5976 -36.5151 -36.5151 -36.5097 -36.5097 -36.4829 -36.4763 -36.4610
   -36.4435 -36.4432 -36.4432 -36.4241 -36.4194 -36.4194 -36.4162 -36.3690
   -36.3556 -36.3556 -36.3509 -36.3257 -36.3257 -36.3135 -36.3135 -36.3115
   -36.3115 -36.2987 -36.2919 -36.2504 -36.2504 -36.2305 -36.1946 -36.1946
   -36.1383 -36.1338 -36.1276 -36.1219 -36.1175 -36.1175 -36.1089 -36.0840
   -36.0828 -36.0828 -36.0811 -36.0771 -36.0714 -36.0682 -36.0682 -36.0571
   -36.0307 -36.0307 -36.0290 -36.0256 -36.0256 -36.0246 -36.0110 -36.0110
   -35.8697 -35.8606 -35.8565 -35.8559 -35.8559 -35.8455 -35.8455 -35.8447
   -35.8419 -35.8334 -35.8181 -35.8181 -35.8096 -35.8086 -35.8077 -35.8055
   -35.8031 -35.8029 -35.8029 -35.8021 -35.7996 -35.7996 -35.7966 -35.7966
     7.0685   8.0809   8.7007   9.2575  10.7233  11.5226  11.8926  11.8926
    12.1651  12.4586  12.6134  12.6134  12.8937  12.8937  12.9525  12.9869
    13.0430  13.0919  13.0923  13.1274  13.1565  13.1565  13.2073  13.2120
    13.3220  13.3558  13.6200  13.6335  13.6523  13.7933  13.8810  13.8810
    13.9031  13.9648  14.1247  14.1926  14.2341  14.3339  14.3339  14.3619
    14.3619  14.4880  14.4880  14.5481  14.5583  14.6768  14.6768  14.7164
    14.7546  14.7751  14.7751  14.8099  14.8359  14.8359  14.9038  14.9150
    14.9203  14.9203  14.9408  15.0015  15.0015  15.0346  15.0346  15.0762
    15.1569  15.1569  15.3064  15.3901  15.3901  15.4897  15.5225  15.5715
    15.6177  15.6177  15.6922  15.6963  15.6963  15.7081  15.8178  15.8178
    15.8902  15.8902  15.9772  15.9824  15.9932  15.9932  16.0493  16.1478
    16.1610  16.1610  16.2924  16.3602  16.3640  16.3855  16.4312  16.4312
    16.4373  16.5069  16.5280  16.5841  16.5841  16.6467  16.6467  16.6890
    16.7103  16.7262  16.7497  16.7587  16.7761  16.7921  16.8646  16.8711
    16.8730  16.8742  16.8742  16.9279  16.9279  16.9463  16.9581  16.9685
    17.0230  17.0255  17.0255  17.0660  17.0744  17.0919  17.1035  17.1266
    17.1716  17.1934  17.1934  17.2882  17.2986  17.3301  17.3355  17.3555
    17.3965  17.4391  17.4391  17.5393  17.5393  17.5874  17.6235  17.6330
    17.6330  17.6724  17.7411  17.8929  17.9084  17.9084  18.0114  18.0114
    18.0351  18.0651  18.1092  18.1134  18.1134  18.1277  18.2505  18.3148
    18.3148  18.3889  18.3889  19.9040  20.0206  20.0206

          k = 0.1000 0.0000 0.2000 ( 16394 PWs)   bands (ev):

   -70.5408 -70.4898 -70.3658 -70.3656 -70.3627 -70.3627 -70.2853 -70.2851
   -70.2332 -70.2020 -70.1941 -70.1795 -70.0713 -70.0710 -70.0702 -70.0693
   -70.0686 -70.0669 -70.0643 -70.0578 -69.7788 -69.7776 -69.7771 -69.7764
   -69.7746 -69.7735 -69.7718 -69.7691 -36.6146 -36.6076 -36.6071 -36.5981
   -36.5976 -36.5140 -36.5133 -36.5112 -36.5094 -36.4766 -36.4757 -36.4592
   -36.4417 -36.4367 -36.4344 -36.4267 -36.4201 -36.4187 -36.4104 -36.3718
   -36.3592 -36.3577 -36.3466 -36.3328 -36.3302 -36.3223 -36.3168 -36.3118
   -36.3082 -36.2932 -36.2877 -36.2665 -36.2476 -36.2392 -36.2187 -36.2037
   -36.1285 -36.1235 -36.1200 -36.1191 -36.1053 -36.1028 -36.1024 -36.0893
   -36.0884 -36.0842 -36.0797 -36.0782 -36.0737 -36.0715 -36.0672 -36.0503
   -36.0350 -36.0292 -36.0292 -36.0288 -36.0286 -36.0213 -36.0168 -36.0146
   -35.8658 -35.8573 -35.8553 -35.8541 -35.8518 -35.8493 -35.8425 -35.8403
   -35.8399 -35.8337 -35.8211 -35.8199 -35.8125 -35.8120 -35.8082 -35.8074
   -35.8060 -35.8053 -35.8027 -35.8016 -35.8007 -35.7990 -35.7985 -35.7971
     7.2317   8.1888   8.7459   9.1049  10.7376  11.4215  11.6756  12.0159
    12.1487  12.2602  12.4915  12.7039  12.7373  12.9323  12.9646  13.0623
    13.0899  13.1009  13.1434  13.2030  13.2338  13.2814  13.2916  13.3291
    13.4220  13.5312  13.5631  13.5762  13.7164  13.8111  13.9044  13.9480
    13.9949  14.0167  14.0555  14.1764  14.1812  14.3641  14.3715  14.3860
    14.4022  14.4525  14.5004  14.5248  14.5538  14.5598  14.5819  14.6180
    14.6684  14.6924  14.6957  14.7337  14.7832  14.7855  14.8252  14.8364
    14.8972  14.9141  14.9362  14.9909  15.0228  15.0502  15.0903  15.1584
    15.2011  15.2954  15.3189  15.3322  15.3967  15.4181  15.5067  15.5092
    15.5222  15.5791  15.5932  15.6657  15.6704  15.6906  15.7409  15.7507
    15.8038  15.8110  15.9199  15.9469  16.0441  16.1088  16.1113  16.1502
    16.1718  16.2140  16.2212  16.2624  16.2917  16.3115  16.3480  16.3752
    16.3985  16.4176  16.4314  16.4517  16.4951  16.5010  16.5408  16.5753
    16.5818  16.6370  16.6759  16.6833  16.7336  16.7525  16.7558  16.7769
    16.8176  16.8335  16.8424  16.8555  16.8579  16.8821  16.8896  16.9310
    16.9679  16.9954  17.0427  17.0641  17.0949  17.1022  17.1387  17.1520
    17.1705  17.2136  17.2301  17.2345  17.2508  17.2958  17.3076  17.3357
    17.3501  17.3827  17.3946  17.4909  17.5193  17.5456  17.5654  17.6077
    17.6743  17.7440  17.7497  17.7907  17.9647  17.9816  17.9956  18.0373
    18.0430  18.2112  18.2587  18.3372  18.3451  18.4659  18.5642  18.7204
    19.0664  19.1460  19.4028  19.7485  19.7795  20.2618

          k = 0.1000 0.0000 0.4000 ( 16352 PWs)   bands (ev):

   -70.5408 -70.4898 -70.3648 -70.3646 -70.3636 -70.3635 -70.2854 -70.2851
   -70.2321 -70.2010 -70.1959 -70.1803 -70.0708 -70.0699 -70.0693 -70.0683
   -70.0672 -70.0664 -70.0655 -70.0609 -69.7783 -69.7775 -69.7767 -69.7754
   -69.7749 -69.7733 -69.7721 -69.7704 -36.6138 -36.6068 -36.6055 -36.5990
   -36.5978 -36.5132 -36.5122 -36.5102 -36.5089 -36.4768 -36.4591 -36.4523
   -36.4425 -36.4411 -36.4253 -36.4228 -36.4176 -36.4053 -36.3939 -36.3765
   -36.3715 -36.3614 -36.3551 -36.3522 -36.3374 -36.3246 -36.3164 -36.3123
   -36.2959 -36.2861 -36.2844 -36.2840 -36.2562 -36.2538 -36.2383 -36.2219
   -36.1200 -36.1122 -36.1095 -36.1050 -36.1002 -36.0964 -36.0932 -36.0913
   -36.0885 -36.0803 -36.0798 -36.0774 -36.0714 -36.0659 -36.0539 -36.0528
   -36.0481 -36.0367 -36.0365 -36.0307 -36.0299 -36.0268 -36.0197 -36.0145
   -35.8603 -35.8543 -35.8539 -35.8508 -35.8441 -35.8409 -35.8359 -35.8358
   -35.8344 -35.8308 -35.8268 -35.8249 -35.8248 -35.8203 -35.8183 -35.8164
   -35.8072 -35.8049 -35.8037 -35.8021 -35.7999 -35.7983 -35.7980 -35.7980
     7.6617   8.3939   8.4685   9.0112  10.6850  11.1596  11.5430  12.0053
    12.2332  12.2992  12.4050  12.7413  12.8130  12.8423  12.9182  13.0123
    13.1392  13.2208  13.2640  13.3890  13.3982  13.4036  13.4777  13.5376
    13.5528  13.6040  13.6508  13.7134  13.7198  13.8480  13.8966  13.9654
    13.9832  14.0025  14.0542  14.0921  14.0986  14.1454  14.2395  14.2596
    14.4287  14.4553  14.4574  14.5089  14.5370  14.5719  14.5957  14.6363
    14.6561  14.6568  14.7094  14.7194  14.7559  14.7663  14.7790  14.8386
    14.8414  14.9144  14.9562  14.9939  15.0214  15.0833  15.1009  15.1385
    15.1566  15.1717  15.2084  15.2835  15.2841  15.2954  15.3202  15.3424
    15.4146  15.4465  15.4686  15.5220  15.5232  15.5793  15.6250  15.6806
    15.6922  15.7079  15.7970  15.8103  15.8592  15.9278  15.9331  16.0022
    16.0233  16.1127  16.1838  16.2593  16.2956  16.3068  16.3165  16.3864
    16.4028  16.4189  16.4523  16.4582  16.4680  16.5008  16.5045  16.5288
    16.5472  16.5779  16.5839  16.6313  16.6512  16.6524  16.7056  16.7358
    16.7678  16.7834  16.8031  16.8035  16.8534  16.8580  16.8765  16.8952
    16.9478  16.9707  16.9859  16.9996  17.0301  17.0472  17.0518  17.1193
    17.1300  17.1382  17.1799  17.1954  17.2681  17.2975  17.3139  17.3336
    17.3392  17.3805  17.3860  17.4560  17.5576  17.6189  17.6464  17.6757
    17.7024  17.7576  17.8046  17.8207  17.9735  18.0363  18.0738  18.1540
    18.3210  18.4065  18.5454  18.6735  18.8924  19.1408  19.1596  19.3262
    19.5842  19.8330  19.9269  20.0723  20.1699  20.3932

          k = 0.1000 0.2000 0.2000 ( 16363 PWs)   bands (ev):

   -70.5408 -70.4898 -70.3655 -70.3653 -70.3629 -70.3628 -70.2854 -70.2851
   -70.2326 -70.2014 -70.1948 -70.1802 -70.0708 -70.0701 -70.0698 -70.0687
   -70.0687 -70.0673 -70.0648 -70.0588 -69.7785 -69.7773 -69.7767 -69.7765
   -69.7739 -69.7738 -69.7724 -69.7696 -36.6142 -36.6076 -36.6063 -36.5984
   -36.5974 -36.5145 -36.5120 -36.5113 -36.5088 -36.4765 -36.4703 -36.4567
   -36.4398 -36.4331 -36.4298 -36.4228 -36.4223 -36.4122 -36.4070 -36.3747
   -36.3642 -36.3536 -36.3479 -36.3347 -36.3254 -36.3250 -36.3214 -36.3209
   -36.3110 -36.2907 -36.2853 -36.2649 -36.2588 -36.2464 -36.2238 -36.2232
   -36.1215 -36.1148 -36.1133 -36.1089 -36.1076 -36.1055 -36.0933 -36.0931
   -36.0884 -36.0797 -36.0788 -36.0745 -36.0734 -36.0731 -36.0715 -36.0486
   -36.0384 -36.0358 -36.0312 -36.0270 -36.0260 -36.0218 -36.0209 -36.0138
   -35.8613 -35.8551 -35.8515 -35.8510 -35.8510 -35.8490 -35.8418 -35.8393
   -35.8373 -35.8343 -35.8236 -35.8217 -35.8121 -35.8113 -35.8112 -35.8091
   -35.8085 -35.8077 -35.8054 -35.8045 -35.8007 -35.7995 -35.7990 -35.7978
     7.3906   8.2919   8.8033   9.0079  10.7523  11.4193  11.6456  11.8905
    12.0737  12.1878  12.3020  12.6506  12.7469  12.8491  13.0299  13.0788
    13.1096  13.1644  13.1710  13.1951  13.2821  13.3599  13.3891  13.4012
    13.4792  13.6080  13.6187  13.6725  13.7250  13.8422  13.9329  13.9697
    14.0472  14.0602  14.1504  14.1769  14.1874  14.2550  14.3006  14.4216
    14.4246  14.4752  14.5081  14.5324  14.5455  14.5706  14.5855  14.5902
    14.6316  14.6471  14.6619  14.7053  14.7148  14.7245  14.7951  14.8384
    14.9038  14.9215  14.9424  15.0013  15.0060  15.0283  15.1011  15.1254
    15.1663  15.2176  15.2249  15.2674  15.3495  15.3763  15.3771  15.4365
    15.4637  15.5075  15.5215  15.5481  15.6346  15.6572  15.6770  15.7037
    15.7368  15.8645  15.8883  15.9006  15.9524  15.9677  16.0432  16.0947
    16.1314  16.1513  16.1733  16.2380  16.2832  16.2976  16.3054  16.3294
    16.3459  16.4199  16.4573  16.4645  16.4833  16.4860  16.5241  16.5459
    16.5706  16.6081  16.6755  16.6856  16.6945  16.7265  16.7387  16.7590
    16.7766  16.7821  16.8029  16.8082  16.8456  16.8770  16.9400  16.9547
    16.9847  17.0001  17.0217  17.0222  17.0537  17.0706  17.0759  17.1077
    17.1140  17.1958  17.2064  17.2259  17.2296  17.2709  17.3051  17.3131
    17.3560  17.3679  17.4313  17.4425  17.4645  17.5141  17.5375  17.6798
    17.6804  17.7169  17.7516  17.7580  17.8162  17.8294  17.9159  18.1819
    18.2343  18.3916  18.4443  18.5597  18.7149  18.8331  19.0389  19.1449
    19.1773  19.5074  19.5985  19.8676  20.0389  20.5159

          k = 0.1000 0.2000 0.4000 ( 16331 PWs)   bands (ev):

   -70.5408 -70.4898 -70.3646 -70.3644 -70.3636 -70.3635 -70.2854 -70.2852
   -70.2317 -70.2002 -70.1964 -70.1813 -70.0705 -70.0691 -70.0690 -70.0680
   -70.0674 -70.0664 -70.0659 -70.0617 -69.7780 -69.7771 -69.7762 -69.7752
   -69.7749 -69.7736 -69.7725 -69.7708 -36.6134 -36.6070 -36.6058 -36.5985
   -36.5975 -36.5144 -36.5132 -36.5089 -36.5079 -36.4766 -36.4565 -36.4494
   -36.4423 -36.4399 -36.4226 -36.4172 -36.4093 -36.4022 -36.3911 -36.3782
   -36.3735 -36.3653 -36.3453 -36.3423 -36.3384 -36.3334 -36.3241 -36.3154
   -36.2963 -36.2859 -36.2846 -36.2833 -36.2609 -36.2589 -36.2504 -36.2353
   -36.1131 -36.1104 -36.1070 -36.1001 -36.0989 -36.0962 -36.0941 -36.0909
[...]

     total magnetization       =    56.09 Bohr mag/cell
     absolute magnetization    =    60.01 Bohr mag/cell

     iteration #  2     ecut=    54.00 Ry     beta= 0.70
     Davidson diagonalization with overlap
     ethr =  2.11E-05,  avg # of iterations =  9.6

     negative rho (up, down):  0.000E+00 2.234E-03

     total cpu time spent up to now is    38122.4 secs

     total energy              =   -9262.06545136 Ry
     estimated scf accuracy    <     225.80341765 Ry

     total magnetization       =    35.19 Bohr mag/cell
     absolute magnetization    =    39.24 Bohr mag/cell

     iteration #  3     ecut=    54.00 Ry     beta= 0.70
     Davidson diagonalization with overlap
     ethr =  2.11E-05,  avg # of iterations =  8.4

     negative rho (up, down):  0.000E+00 2.171E-03

     total cpu time spent up to now is    38346.7 secs

     total energy              =   -9265.37808168 Ry
     estimated scf accuracy    <       0.25327058 Ry

     total magnetization       =    56.90 Bohr mag/cell
     absolute magnetization    =    60.78 Bohr mag/cell

     iteration #  4     ecut=    54.00 Ry     beta= 0.70
     Davidson diagonalization with overlap
     ethr =  2.11E-05,  avg # of iterations =  2.1

     negative rho (up, down):  0.000E+00 2.146E-03

     total cpu time spent up to now is    38477.4 secs

     total energy              =   -9265.38995543 Ry
     estimated scf accuracy    <       0.24859577 Ry

     total magnetization       =    56.36 Bohr mag/cell
     absolute magnetization    =    60.29 Bohr mag/cell

     iteration #  5     ecut=    54.00 Ry     beta= 0.70
     Davidson diagonalization with overlap
     ethr =  2.11E-05,  avg # of iterations =  1.2

     negative rho (up, down):  0.000E+00 2.147E-03

     total cpu time spent up to now is    38586.9 secs

     total energy              =   -9265.40038859 Ry
     estimated scf accuracy    <       0.02432018 Ry

     total magnetization       =    56.56 Bohr mag/cell
     absolute magnetization    =    60.44 Bohr mag/cell

     iteration #  6     ecut=    54.00 Ry     beta= 0.70
     Davidson diagonalization with overlap
     ethr =  5.24E-06,  avg # of iterations =  1.2

     negative rho (up, down):  0.000E+00 2.179E-03

     total cpu time spent up to now is    38696.4 secs

     total energy              =   -9265.40077190 Ry
     estimated scf accuracy    <       0.02201814 Ry

     total magnetization       =    56.56 Bohr mag/cell
     absolute magnetization    =    60.44 Bohr mag/cell

     iteration #  7     ecut=    54.00 Ry     beta= 0.70
     Davidson diagonalization with overlap
     ethr =  4.75E-06,  avg # of iterations =  1.1

     negative rho (up, down):  0.000E+00 2.185E-03

     total cpu time spent up to now is    38804.5 secs

     total energy              =   -9265.40108983 Ry
     estimated scf accuracy    <       0.00459496 Ry

     total magnetization       =    56.57 Bohr mag/cell
     absolute magnetization    =    60.46 Bohr mag/cell

     iteration #  8     ecut=    54.00 Ry     beta= 0.70
     Davidson diagonalization with overlap
     ethr =  9.90E-07,  avg # of iterations =  2.1

     negative rho (up, down):  0.000E+00 2.210E-03

     total cpu time spent up to now is    38923.1 secs

     total energy              =   -9265.40099617 Ry
     estimated scf accuracy    <       0.00525987 Ry

     total magnetization       =    56.53 Bohr mag/cell
     absolute magnetization    =    60.43 Bohr mag/cell

     iteration #  9     ecut=    54.00 Ry     beta= 0.70
     Davidson diagonalization with overlap
     ethr =  9.90E-07,  avg # of iterations =  1.4

     negative rho (up, down):  0.000E+00 2.217E-03

     total cpu time spent up to now is    39035.4 secs

     total energy              =   -9265.40119743 Ry
     estimated scf accuracy    <       0.00036128 Ry

     total magnetization       =    56.57 Bohr mag/cell
     absolute magnetization    =    60.47 Bohr mag/cell

     iteration # 10     ecut=    54.00 Ry     beta= 0.70
     Davidson diagonalization with overlap
     ethr =  7.79E-08,  avg # of iterations =  4.7

     negative rho (up, down):  0.000E+00 2.220E-03

     total cpu time spent up to now is    39196.0 secs

     total energy              =   -9265.40124969 Ry
     estimated scf accuracy    <       0.00105600 Ry

     total magnetization       =    56.56 Bohr mag/cell
     absolute magnetization    =    60.46 Bohr mag/cell

     iteration # 11     ecut=    54.00 Ry     beta= 0.70
     Davidson diagonalization with overlap
     ethr =  7.79E-08,  avg # of iterations =  2.0

     negative rho (up, down):  0.000E+00 2.220E-03

     total cpu time spent up to now is    39319.5 secs

     total energy              =   -9265.40131472 Ry
     estimated scf accuracy    <       0.00003090 Ry

     total magnetization       =    56.57 Bohr mag/cell
     absolute magnetization    =    60.47 Bohr mag/cell

     iteration # 12     ecut=    54.00 Ry     beta= 0.70
     Davidson diagonalization with overlap
     ethr =  6.66E-09,  avg # of iterations =  4.3

     negative rho (up, down):  0.000E+00 2.221E-03

     total cpu time spent up to now is    39507.5 secs

     total energy              =   -9265.40132391 Ry
     estimated scf accuracy    <       0.00006898 Ry

     total magnetization       =    56.57 Bohr mag/cell
     absolute magnetization    =    60.48 Bohr mag/cell

     iteration # 13     ecut=    54.00 Ry     beta= 0.70
     Davidson diagonalization with overlap
     ethr =  6.66E-09,  avg # of iterations =  1.9

     negative rho (up, down):  0.000E+00 2.223E-03

     total cpu time spent up to now is    39628.0 secs

     total energy              =   -9265.40132755 Ry
     estimated scf accuracy    <       0.00000624 Ry

     total magnetization       =    56.58 Bohr mag/cell
     absolute magnetization    =    60.48 Bohr mag/cell

     iteration # 14     ecut=    54.00 Ry     beta= 0.70
     Davidson diagonalization with overlap
     ethr =  1.34E-09,  avg # of iterations =  2.4

     negative rho (up, down):  0.000E+00 2.223E-03

     total cpu time spent up to now is    39766.2 secs

     total energy              =   -9265.40132695 Ry
     estimated scf accuracy    <       0.00002136 Ry

     total magnetization       =    56.59 Bohr mag/cell
     absolute magnetization    =    60.49 Bohr mag/cell

     iteration # 15     ecut=    54.00 Ry     beta= 0.70
     Davidson diagonalization with overlap
     ethr =  1.34E-09,  avg # of iterations =  2.0

     negative rho (up, down):  0.000E+00 2.226E-03

     total cpu time spent up to now is    39891.0 secs

     total energy              =   -9265.40132858 Ry
     estimated scf accuracy    <       0.00000681 Ry

     total magnetization       =    56.59 Bohr mag/cell
     absolute magnetization    =    60.49 Bohr mag/cell

     iteration # 16     ecut=    54.00 Ry     beta= 0.70
     Davidson diagonalization with overlap
     ethr =  1.34E-09,  avg # of iterations =  2.1

     negative rho (up, down):  0.000E+00 2.226E-03

     total cpu time spent up to now is    40022.4 secs

     total energy              =   -9265.40132593 Ry
     estimated scf accuracy    <       0.00010099 Ry

     total magnetization       =    56.61 Bohr mag/cell
     absolute magnetization    =    60.52 Bohr mag/cell

     iteration # 17     ecut=    54.00 Ry     beta= 0.70
     Davidson diagonalization with overlap
     ethr =  1.34E-09,  avg # of iterations =  2.4

     negative rho (up, down):  0.000E+00 2.226E-03

     total cpu time spent up to now is    40152.1 secs

     total energy              =   -9265.40132727 Ry
     estimated scf accuracy    <       0.00003672 Ry

     total magnetization       =    56.59 Bohr mag/cell
     absolute magnetization    =    60.50 Bohr mag/cell

     iteration # 18     ecut=    54.00 Ry     beta= 0.70
     Davidson diagonalization with overlap
     ethr =  1.34E-09,  avg # of iterations =  2.0

     negative rho (up, down):  0.000E+00 2.226E-03

     total cpu time spent up to now is    40276.1 secs

     total energy              =   -9265.40132872 Ry
     estimated scf accuracy    <       0.00000869 Ry

     total magnetization       =    56.60 Bohr mag/cell
     absolute magnetization    =    60.51 Bohr mag/cell

     iteration # 19     ecut=    54.00 Ry     beta= 0.70
     Davidson diagonalization with overlap
     ethr =  1.34E-09,  avg # of iterations =  2.0

     negative rho (up, down):  0.000E+00 2.227E-03

     total cpu time spent up to now is    40401.8 secs

     total energy              =   -9265.40132904 Ry
     estimated scf accuracy    <       0.00000377 Ry

     total magnetization       =    56.60 Bohr mag/cell
     absolute magnetization    =    60.51 Bohr mag/cell

     iteration # 20     ecut=    54.00 Ry     beta= 0.70
     Davidson diagonalization with overlap
     ethr =  8.12E-10,  avg # of iterations =  2.0

     negative rho (up, down):  0.000E+00 2.228E-03

     total cpu time spent up to now is    40526.9 secs

     total energy              =   -9265.40132909 Ry
     estimated scf accuracy    <       0.00000713 Ry

     total magnetization       =    56.60 Bohr mag/cell
     absolute magnetization    =    60.51 Bohr mag/cell

     iteration # 21     ecut=    54.00 Ry     beta= 0.70
     Davidson diagonalization with overlap
     ethr =  8.12E-10,  avg # of iterations =  2.0

     negative rho (up, down):  0.000E+00 2.228E-03

     total cpu time spent up to now is    40648.0 secs

     total energy              =   -9265.40132926 Ry
     estimated scf accuracy    <       0.00000446 Ry

     total magnetization       =    56.61 Bohr mag/cell
     absolute magnetization    =    60.52 Bohr mag/cell

     iteration # 22     ecut=    54.00 Ry     beta= 0.70
     Davidson diagonalization with overlap
     ethr =  8.12E-10,  avg # of iterations =  2.1

     negative rho (up, down):  0.000E+00 2.228E-03

     total cpu time spent up to now is    40773.3 secs

     total energy              =   -9265.40132878 Ry
     estimated scf accuracy    <       0.00001766 Ry

     total magnetization       =    56.61 Bohr mag/cell
     absolute magnetization    =    60.52 Bohr mag/cell

     iteration # 23     ecut=    54.00 Ry     beta= 0.70
     Davidson diagonalization with overlap
     ethr =  8.12E-10,  avg # of iterations =  2.0

     negative rho (up, down):  0.000E+00 2.228E-03

     total cpu time spent up to now is    40895.9 secs

     total energy              =   -9265.40132954 Ry
     estimated scf accuracy    <       0.00000119 Ry

     total magnetization       =    56.61 Bohr mag/cell
     absolute magnetization    =    60.52 Bohr mag/cell

     iteration # 24     ecut=    54.00 Ry     beta= 0.70
     Davidson diagonalization with overlap
     ethr =  2.56E-10,  avg # of iterations =  2.0

     negative rho (up, down):  0.000E+00 2.229E-03

     total cpu time spent up to now is    41024.5 secs

     total energy              =   -9265.40132952 Ry
     estimated scf accuracy    <       0.00000174 Ry

     total magnetization       =    56.61 Bohr mag/cell
     absolute magnetization    =    60.52 Bohr mag/cell

     iteration # 25     ecut=    54.00 Ry     beta= 0.70
     Davidson diagonalization with overlap
     ethr =  2.56E-10,  avg # of iterations =  1.4

     negative rho (up, down):  0.000E+00 2.228E-03

     total cpu time spent up to now is    41136.9 secs

     total energy              =   -9265.40132948 Ry
     estimated scf accuracy    <       0.00000082 Ry

     total magnetization       =    56.61 Bohr mag/cell
     absolute magnetization    =    60.52 Bohr mag/cell

     iteration # 26     ecut=    54.00 Ry     beta= 0.70
     Davidson diagonalization with overlap
     ethr =  1.76E-10,  avg # of iterations =  2.9

     negative rho (up, down):  0.000E+00 2.230E-03

     total cpu time spent up to now is    41276.2 secs

     total energy              =   -9265.40132877 Ry
     estimated scf accuracy    <       0.00002746 Ry

     total magnetization       =    56.60 Bohr mag/cell
     absolute magnetization    =    60.52 Bohr mag/cell

     iteration # 27     ecut=    54.00 Ry     beta= 0.70
     Davidson diagonalization with overlap
     ethr =  1.76E-10,  avg # of iterations =  2.4

     negative rho (up, down):  0.000E+00 2.230E-03

     total cpu time spent up to now is    41410.3 secs

     total energy              =   -9265.40132961 Ry
     estimated scf accuracy    <       0.00000046 Ry

     total magnetization       =    56.61 Bohr mag/cell
     absolute magnetization    =    60.53 Bohr mag/cell

     iteration # 28     ecut=    54.00 Ry     beta= 0.70
     Davidson diagonalization with overlap
     ethr =  9.87E-11,  avg # of iterations =  2.9

     negative rho (up, down):  0.000E+00 2.229E-03

     total cpu time spent up to now is    41551.1 secs

     total energy              =   -9265.40132943 Ry
     estimated scf accuracy    <       0.00000616 Ry

     total magnetization       =    56.61 Bohr mag/cell
     absolute magnetization    =    60.52 Bohr mag/cell

     iteration # 29     ecut=    54.00 Ry     beta= 0.70
     Davidson diagonalization with overlap
     ethr =  9.87E-11,  avg # of iterations =  2.3

     negative rho (up, down):  0.000E+00 2.230E-03

     total cpu time spent up to now is    41683.6 secs

     total energy              =   -9265.40132967 Ry
     estimated scf accuracy    <       0.00000031 Ry

     total magnetization       =    56.61 Bohr mag/cell
     absolute magnetization    =    60.52 Bohr mag/cell

     iteration # 30     ecut=    54.00 Ry     beta= 0.70
     Davidson diagonalization with overlap
     ethr =  6.72E-11,  avg # of iterations =  1.3

     negative rho (up, down):  0.000E+00 2.230E-03

     total cpu time spent up to now is    41794.7 secs

     total energy              =   -9265.40132967 Ry
     estimated scf accuracy    <       0.00000038 Ry

     total magnetization       =    56.61 Bohr mag/cell
     absolute magnetization    =    60.53 Bohr mag/cell

     iteration # 31     ecut=    54.00 Ry     beta= 0.70
     Davidson diagonalization with overlap
     ethr =  6.72E-11,  avg # of iterations =  1.0

     negative rho (up, down):  0.000E+00 2.230E-03

     total cpu time spent up to now is    41901.0 secs

     total energy              =   -9265.40132968 Ry
     estimated scf accuracy    <       0.00000009 Ry

     total magnetization       =    56.61 Bohr mag/cell
     absolute magnetization    =    60.53 Bohr mag/cell

     iteration # 32     ecut=    54.00 Ry     beta= 0.70
     Davidson diagonalization with overlap
     ethr =  2.01E-11,  avg # of iterations =  2.1

     negative rho (up, down):  0.000E+00 2.230E-03

     total cpu time spent up to now is    42026.4 secs

     total energy              =   -9265.40132967 Ry
     estimated scf accuracy    <       0.00000039 Ry

     total magnetization       =    56.62 Bohr mag/cell
     absolute magnetization    =    60.53 Bohr mag/cell

     iteration # 33     ecut=    54.00 Ry     beta= 0.70
     Davidson diagonalization with overlap
     ethr =  2.01E-11,  avg # of iterations =  2.5

     negative rho (up, down):  0.000E+00 2.230E-03

     total cpu time spent up to now is    42157.5 secs

     total energy              =   -9265.40132967 Ry
     estimated scf accuracy    <       0.00000042 Ry

     total magnetization       =    56.61 Bohr mag/cell
     absolute magnetization    =    60.53 Bohr mag/cell

     iteration # 34     ecut=    54.00 Ry     beta= 0.70
     Davidson diagonalization with overlap
     ethr =  2.01E-11,  avg # of iterations =  2.2

     negative rho (up, down):  0.000E+00 2.230E-03

     total cpu time spent up to now is    42281.2 secs

     total energy              =   -9265.40132968 Ry
     estimated scf accuracy    <       0.00000009 Ry

     total magnetization       =    56.61 Bohr mag/cell
     absolute magnetization    =    60.53 Bohr mag/cell

     iteration # 35     ecut=    54.00 Ry     beta= 0.70
     Davidson diagonalization with overlap
     ethr =  2.01E-11,  avg # of iterations =  1.9

     negative rho (up, down):  0.000E+00 2.230E-03

     total cpu time spent up to now is    42402.8 secs

     total energy              =   -9265.40132965 Ry
     estimated scf accuracy    <       0.00000035 Ry

     total magnetization       =    56.61 Bohr mag/cell
     absolute magnetization    =    60.53 Bohr mag/cell

     iteration # 36     ecut=    54.00 Ry     beta= 0.70
     Davidson diagonalization with overlap
     ethr =  2.01E-11,  avg # of iterations =  3.9

     negative rho (up, down):  0.000E+00 2.230E-03

     total cpu time spent up to now is    42552.6 secs

     total energy              =   -9265.40132951 Ry
     estimated scf accuracy    <       0.00000580 Ry

     total magnetization       =    56.61 Bohr mag/cell
     absolute magnetization    =    60.53 Bohr mag/cell

     iteration # 37     ecut=    54.00 Ry     beta= 0.70
     Davidson diagonalization with overlap
     ethr =  2.01E-11,  avg # of iterations =  3.6

     negative rho (up, down):  0.000E+00 2.230E-03

     total cpu time spent up to now is    42699.0 secs

     total energy              =   -9265.40132968 Ry
     estimated scf accuracy    <       0.00000008 Ry

     total magnetization       =    56.62 Bohr mag/cell
     absolute magnetization    =    60.53 Bohr mag/cell

     iteration # 38     ecut=    54.00 Ry     beta= 0.70
     Davidson diagonalization with overlap
     ethr =  1.76E-11,  avg # of iterations =  2.0

     negative rho (up, down):  0.000E+00 2.230E-03

     total cpu time spent up to now is    42821.5 secs

     total energy              =   -9265.40132967 Ry
     estimated scf accuracy    <       0.00000044 Ry

     total magnetization       =    56.61 Bohr mag/cell
     absolute magnetization    =    60.53 Bohr mag/cell

     iteration # 39     ecut=    54.00 Ry     beta= 0.70
     Davidson diagonalization with overlap
     ethr =  1.76E-11,  avg # of iterations =  2.0

     negative rho (up, down):  0.000E+00 2.230E-03

     total cpu time spent up to now is    42950.6 secs

     total energy              =   -9265.40132968 Ry
     estimated scf accuracy    <       0.00000018 Ry

     total magnetization       =    56.62 Bohr mag/cell
     absolute magnetization    =    60.53 Bohr mag/cell

     iteration # 40     ecut=    54.00 Ry     beta= 0.70
     Davidson diagonalization with overlap
     ethr =  1.76E-11,  avg # of iterations =  1.9

     negative rho (up, down):  0.000E+00 2.230E-03

     total cpu time spent up to now is    43071.9 secs

     total energy              =   -9265.40132969 Ry
     estimated scf accuracy    <       0.00000007 Ry

     total magnetization       =    56.62 Bohr mag/cell
     absolute magnetization    =    60.53 Bohr mag/cell

     iteration # 41     ecut=    54.00 Ry     beta= 0.70
     Davidson diagonalization with overlap
     ethr =  1.43E-11,  avg # of iterations =  1.6

     negative rho (up, down):  0.000E+00 2.230E-03

     total cpu time spent up to now is    43188.1 secs

     total energy              =   -9265.40132969 Ry
     estimated scf accuracy    <       0.00000005 Ry

     total magnetization       =    56.62 Bohr mag/cell
     absolute magnetization    =    60.53 Bohr mag/cell

     iteration # 42     ecut=    54.00 Ry     beta= 0.70
     Davidson diagonalization with overlap
     ethr =  1.14E-11,  avg # of iterations =  1.9

     negative rho (up, down):  0.000E+00 2.230E-03

     total cpu time spent up to now is    43310.0 secs

     total energy              =   -9265.40132969 Ry
     estimated scf accuracy    <       0.00000019 Ry

     total magnetization       =    56.62 Bohr mag/cell
     absolute magnetization    =    60.53 Bohr mag/cell

     iteration # 43     ecut=    54.00 Ry     beta= 0.70
     Davidson diagonalization with overlap

! Seems converged enough, still well below the desired
threshold.
