
     Program PWSCF v.7.1 starts on 16Nov2022 at 15:16: 8 
        Git branch: master
        Last git commit: ce561e80fa51fbc2904c59db0bf7fc0b825e1bb9
        Last git commit date: Thu Jun 16 14:15:26 2022 +0000
        Last git commit subject: Merge branch 'master-qe-7.1' into 'master'

     This program is part of the open-source Quantum ESPRESSO suite
     for quantum simulation of materials; please cite
         "P. Giannozzi et al., J. Phys.:Condens. Matter 21 395502 (2009);
         "P. Giannozzi et al., J. Phys.:Condens. Matter 29 465901 (2017);
         "P. Giannozzi et al., J. Chem. Phys. 152 154105 (2020);
          URL http://www.quantum-espresso.org", 
     in publications or presentations arising from this work. More details at
     http://www.quantum-espresso.org/quote

     Parallel version (MPI), running on     1 processors

     MPI processes distributed on     1 nodes
     2590 MiB available memory on the printing compute node when the environment starts

     Waiting for input...
     Reading input from standard input

     Current dimensions of program PWSCF are:
     Max number of different atomic species (ntypx) = 10
     Max number of k-points (npk) =  40000
     Max angular momentum in pseudopotentials (lmaxx) =  4
     file Fe.pbe-spn-kjpaw_psl.0.2.1.UPF: wavefunction(s)  3D renormalized

     IMPORTANT: XC functional enforced from input :
     Exchange-correlation= PBE
                           (   1   4   3   4   0   0   0)
     Any further DFT definition will be discarded
     Please, verify this is what you really want

     Found identity + (  0.0000 -0.5000 -0.5000) symmetry
     This is a supercell, fractional translations are disabled
     Message from routine setup:
     using ibrav=0 with symmetry is DISCOURAGED, use correct ibrav instead

     Subspace diagonalization in iterative solution of the eigenvalue problem:
     a serial algorithm will be used


     G-vector sticks info
     --------------------
     sticks:   dense  smooth     PW     G-vecs:    dense   smooth      PW
     Sum        3917    1941    553               184739    65117    9771

     Using Slab Decomposition



     bravais-lattice index     =            0
     lattice parameter (alat)  =      10.6864  a.u.
     unit-cell volume          =    1220.3782 (a.u.)^3
     number of atoms/cell      =           16
     number of atomic types    =            2
     number of electrons       =       208.00
     number of Kohn-Sham states=          125
     kinetic-energy cutoff     =      54.0000  Ry
     charge density cutoff     =     432.0000  Ry
     scf convergence threshold =      1.0E-08
     mixing beta               =       0.7000
     number of iterations used =            8  plain     mixing
     energy convergence thresh.=      1.0E-04
     force convergence thresh. =      1.0E-03
     press convergence thresh. =      5.0E-01
     Exchange-correlation= PBE
                           (   1   4   3   4   0   0   0)
     nstep                     =           50


     celldm(1)=  10.686401  celldm(2)=   0.000000  celldm(3)=   0.000000
     celldm(4)=   0.000000  celldm(5)=   0.000000  celldm(6)=   0.000000

     crystal axes: (cart. coord. in units of alat)
               a(1) = (   1.000000   0.000000   0.000000 )  
               a(2) = (   0.000000   1.000000   0.000000 )  
               a(3) = (   0.000000   0.000000   1.000000 )  

     reciprocal axes: (cart. coord. in units 2 pi/alat)
               b(1) = (  1.000000  0.000000  0.000000 )  
               b(2) = (  0.000000  1.000000  0.000000 )  
               b(3) = (  0.000000  0.000000  1.000000 )  


     PseudoPot. # 1 for Si read from file:
     ./Si.pbe-n-rrkjus_psl.1.0.0.UPF
     MD5 check sum: 0b0bb1205258b0d07b9f9672cf965d36
     Pseudo is Ultrasoft + core correction, Zval =  4.0
     Generated using "atomic" code by A. Dal Corso  v.5.1
     Using radial grid of 1141 points,  6 beta functions with: 
                l(1) =   0
                l(2) =   0
                l(3) =   1
                l(4) =   1
                l(5) =   2
                l(6) =   2
     Q(r) pseudized with 0 coefficients 


     PseudoPot. # 2 for Fe read from file:
     ./Fe.pbe-spn-kjpaw_psl.0.2.1.UPF
     MD5 check sum: e86618425769142926afa95317d90200
     Pseudo is Projector augmented-wave + core cor, Zval = 16.0
     Generated using "atomic" code by A. Dal Corso  v.5.0.99 svn rev. 10869
     Shape of augmentation charge: PSQ
     Using radial grid of 1191 points,  6 beta functions with: 
                l(1) =   0
                l(2) =   0
                l(3) =   1
                l(4) =   1
                l(5) =   2
                l(6) =   2
     Q(r) pseudized with 0 coefficients 


     atomic species   valence    mass     pseudopotential
        Si             4.00    28.08500     Si( 1.00)
        Fe            16.00    55.84500     Fe( 1.00)

     Starting magnetic structure 
     atomic species   magnetization
        Si           1.000
        Fe           1.000

     48 Sym. Ops., with inversion, found



   Cartesian axes

     site n.     atom                  positions (alat units)
         1           Fe  tau(   1) = (   0.5000000   0.5000000   0.5000000  )
         2           Fe  tau(   2) = (   0.5000000   1.0000000   1.0000000  )
         3           Fe  tau(   3) = (   1.0000000   0.5000000   1.0000000  )
         4           Fe  tau(   4) = (   1.0000000   1.0000000   0.5000000  )
         5           Fe  tau(   5) = (   0.2500000   0.2500000   0.2500000  )
         6           Fe  tau(   6) = (   0.2500000   0.7500000   0.7500000  )
         7           Fe  tau(   7) = (   0.7500000   0.2500000   0.7500000  )
         8           Fe  tau(   8) = (   0.7500000   0.7500000   0.2500000  )
         9           Fe  tau(   9) = (   0.7500000   0.7500000   0.7500000  )
        10           Fe  tau(  10) = (   0.7500000   0.2500000   0.2500000  )
        11           Fe  tau(  11) = (   0.2500000   0.7500000   0.2500000  )
        12           Fe  tau(  12) = (   0.2500000   0.2500000   0.7500000  )
        13           Si  tau(  13) = (   0.0000000   0.0000000   0.0000000  )
        14           Si  tau(  14) = (   0.0000000   0.5000000   0.5000000  )
        15           Si  tau(  15) = (   0.5000000   0.0000000   0.5000000  )
        16           Si  tau(  16) = (   0.5000000   0.5000000   0.0000000  )

     number of k points=    10  Marzari-Vanderbilt smearing, width (Ry)=  0.0050
                       cart. coord. in units 2pi/alat
        k(    1) = (   0.0000000   0.0000000   0.0000000), wk =   0.0080000
        k(    2) = (   0.0000000   0.0000000   0.2000000), wk =   0.0480000
        k(    3) = (   0.0000000   0.0000000   0.4000000), wk =   0.0480000
        k(    4) = (   0.0000000   0.2000000   0.2000000), wk =   0.0960000
        k(    5) = (   0.0000000   0.2000000   0.4000000), wk =   0.1920000
        k(    6) = (   0.0000000   0.4000000   0.4000000), wk =   0.0960000
        k(    7) = (   0.2000000   0.2000000   0.2000000), wk =   0.0640000
        k(    8) = (   0.2000000   0.2000000   0.4000000), wk =   0.1920000
        k(    9) = (   0.2000000   0.4000000   0.4000000), wk =   0.1920000
        k(   10) = (   0.4000000   0.4000000   0.4000000), wk =   0.0640000

     Dense  grid:   184739 G-vectors     FFT dimensions: (  72,  72,  72)

     Smooth grid:    65117 G-vectors     FFT dimensions: (  50,  50,  50)

     Estimated max dynamical RAM per process >       1.14 GB

     Check: negative core charge=   -0.000060
     Generating pointlists ...
     new r_m :   0.1786 (alat units)  1.9088 (a.u.) for type    1
     new r_m :   0.1786 (alat units)  1.9088 (a.u.) for type    2

     Initial potential from superposition of free atoms

     starting charge     207.9925, renormalised to     208.0000
     Starting wfcs are  172 randomized atomic wfcs
     Checking if some PAW data can be deallocated... 

     total cpu time spent up to now is       59.1 secs

     per-process dynamical memory:   485.0 Mb

     Self-consistent Calculation

     iteration #  1     ecut=    54.00 Ry     beta= 0.70
     Davidson diagonalization with overlap
     ethr =  1.00E-02,  avg # of iterations =  3.0

     negative rho (up, down):  0.000E+00 3.097E-03

     total cpu time spent up to now is      149.8 secs

     total energy              =   -3986.97148795 Ry
     estimated scf accuracy    <      50.55131887 Ry

     total magnetization       =    42.00 Bohr mag/cell
     absolute magnetization    =    54.54 Bohr mag/cell

     iteration #  2     ecut=    54.00 Ry     beta= 0.70
     Davidson diagonalization with overlap
     ethr =  1.00E-02,  avg # of iterations =  3.1

     negative rho (up, down):  0.000E+00 1.693E-03

     total cpu time spent up to now is      249.2 secs

     total energy              =   -3987.50580689 Ry
     estimated scf accuracy    <      26.96363696 Ry

     total magnetization       =    30.78 Bohr mag/cell
     absolute magnetization    =    34.45 Bohr mag/cell

     iteration #  3     ecut=    54.00 Ry     beta= 0.70
     Davidson diagonalization with overlap
     ethr =  1.00E-02,  avg # of iterations =  4.2

     negative rho (up, down):  0.000E+00 1.118E-03

     total cpu time spent up to now is      338.9 secs

     total energy              =   -3984.20741330 Ry
     estimated scf accuracy    <      66.09881334 Ry

     total magnetization       =    17.47 Bohr mag/cell
     absolute magnetization    =    20.09 Bohr mag/cell

     iteration #  4     ecut=    54.00 Ry     beta= 0.70
     Davidson diagonalization with overlap
     ethr =  1.00E-02,  avg # of iterations =  3.8

     negative rho (up, down):  0.000E+00 9.116E-04

     total cpu time spent up to now is      431.0 secs

     total energy              =   -3989.49995834 Ry
     estimated scf accuracy    <     127.21924492 Ry

     total magnetization       =    12.08 Bohr mag/cell
     absolute magnetization    =    12.79 Bohr mag/cell

     iteration #  5     ecut=    54.00 Ry     beta= 0.70
     Davidson diagonalization with overlap
     ethr =  1.00E-02,  avg # of iterations =  3.1

     negative rho (up, down):  0.000E+00 7.825E-04

     total cpu time spent up to now is      524.8 secs

     total energy              =   -3996.34209437 Ry
     estimated scf accuracy    <       2.54832660 Ry

     total magnetization       =    14.22 Bohr mag/cell
     absolute magnetization    =    15.99 Bohr mag/cell

     iteration #  6     ecut=    54.00 Ry     beta= 0.70
     Davidson diagonalization with overlap
     ethr =  1.23E-03,  avg # of iterations =  4.5

     negative rho (up, down):  0.000E+00 6.716E-04

     total cpu time spent up to now is      641.5 secs

     total energy              =   -3996.99012236 Ry
     estimated scf accuracy    <       8.09659554 Ry

     total magnetization       =    16.02 Bohr mag/cell
     absolute magnetization    =    17.85 Bohr mag/cell

     iteration #  7     ecut=    54.00 Ry     beta= 0.70
     Davidson diagonalization with overlap
     ethr =  1.23E-03,  avg # of iterations =  1.7

     negative rho (up, down):  0.000E+00 3.679E-04

     total cpu time spent up to now is      725.6 secs

     total energy              =   -3996.63391635 Ry
     estimated scf accuracy    <       6.81882297 Ry

     total magnetization       =    15.50 Bohr mag/cell
     absolute magnetization    =    17.47 Bohr mag/cell

     iteration #  8     ecut=    54.00 Ry     beta= 0.70
     Davidson diagonalization with overlap
     ethr =  1.23E-03,  avg # of iterations =  1.6

     negative rho (up, down):  0.000E+00 4.237E-04

     total cpu time spent up to now is      823.2 secs

     total energy              =   -3996.94495293 Ry
     estimated scf accuracy    <       1.74619795 Ry

     total magnetization       =    18.44 Bohr mag/cell
     absolute magnetization    =    19.76 Bohr mag/cell

     iteration #  9     ecut=    54.00 Ry     beta= 0.70
     Davidson diagonalization with overlap
     ethr =  8.40E-04,  avg # of iterations =  1.4

     negative rho (up, down):  0.000E+00 3.833E-04

     total cpu time spent up to now is      919.9 secs

     total energy              =   -3997.16348971 Ry
     estimated scf accuracy    <       0.47169258 Ry

     total magnetization       =    20.15 Bohr mag/cell
     absolute magnetization    =    21.88 Bohr mag/cell

     iteration # 10     ecut=    54.00 Ry     beta= 0.70
     Davidson diagonalization with overlap
     ethr =  2.27E-04,  avg # of iterations =  1.6

     negative rho (up, down):  0.000E+00 7.451E-04

     total cpu time spent up to now is      991.5 secs

     total energy              =   -3997.18185685 Ry
     estimated scf accuracy    <       0.56492163 Ry

     total magnetization       =    20.01 Bohr mag/cell
     absolute magnetization    =    21.69 Bohr mag/cell

     iteration # 11     ecut=    54.00 Ry     beta= 0.70
     Davidson diagonalization with overlap
     ethr =  2.27E-04,  avg # of iterations =  1.1

     negative rho (up, down):  0.000E+00 8.274E-04

     total cpu time spent up to now is     1054.0 secs

     total energy              =   -3997.20851040 Ry
     estimated scf accuracy    <       0.25006281 Ry

     total magnetization       =    20.81 Bohr mag/cell
     absolute magnetization    =    22.79 Bohr mag/cell

     iteration # 12     ecut=    54.00 Ry     beta= 0.70
     Davidson diagonalization with overlap
     ethr =  1.20E-04,  avg # of iterations =  2.0

     negative rho (up, down):  0.000E+00 9.467E-04

     total cpu time spent up to now is     1120.9 secs

     total energy              =   -3997.20149094 Ry
     estimated scf accuracy    <       0.36289534 Ry

     total magnetization       =    20.57 Bohr mag/cell
     absolute magnetization    =    22.69 Bohr mag/cell

     iteration # 13     ecut=    54.00 Ry     beta= 0.70
     Davidson diagonalization with overlap
     ethr =  1.20E-04,  avg # of iterations =  1.6

     negative rho (up, down):  0.000E+00 7.914E-04

     total cpu time spent up to now is     1186.7 secs

     total energy              =   -3997.19520623 Ry
     estimated scf accuracy    <       0.15398440 Ry

     total magnetization       =    20.69 Bohr mag/cell
     absolute magnetization    =    22.87 Bohr mag/cell

     iteration # 14     ecut=    54.00 Ry     beta= 0.70
     Davidson diagonalization with overlap
     ethr =  7.40E-05,  avg # of iterations =  2.2

     negative rho (up, down):  0.000E+00 7.644E-04

     total cpu time spent up to now is     1252.8 secs

     total energy              =   -3997.20077734 Ry
     estimated scf accuracy    <       0.01915402 Ry

     total magnetization       =    20.37 Bohr mag/cell
     absolute magnetization    =    22.37 Bohr mag/cell

     iteration # 15     ecut=    54.00 Ry     beta= 0.70
     Davidson diagonalization with overlap
     ethr =  9.21E-06,  avg # of iterations =  4.8

     negative rho (up, down):  0.000E+00 7.806E-04

     total cpu time spent up to now is     1328.0 secs

     total energy              =   -3997.20210472 Ry
     estimated scf accuracy    <       0.00195824 Ry

     total magnetization       =    20.43 Bohr mag/cell
     absolute magnetization    =    22.37 Bohr mag/cell

     iteration # 16     ecut=    54.00 Ry     beta= 0.70
     Davidson diagonalization with overlap
     c_bands:  1 eigenvalues not converged
     ethr =  9.41E-07,  avg # of iterations =  5.8

     negative rho (up, down):  0.000E+00 7.757E-04

     total cpu time spent up to now is     1419.7 secs

     total energy              =   -3997.20253384 Ry
     estimated scf accuracy    <       0.00034971 Ry

     total magnetization       =    20.53 Bohr mag/cell
     absolute magnetization    =    22.44 Bohr mag/cell

     iteration # 17     ecut=    54.00 Ry     beta= 0.70
     Davidson diagonalization with overlap
     ethr =  1.68E-07,  avg # of iterations =  4.3

     negative rho (up, down):  0.000E+00 7.714E-04

     total cpu time spent up to now is     1516.8 secs

     total energy              =   -3997.20265545 Ry
     estimated scf accuracy    <       0.00080515 Ry

     total magnetization       =    20.57 Bohr mag/cell
     absolute magnetization    =    22.44 Bohr mag/cell

     iteration # 18     ecut=    54.00 Ry     beta= 0.70
     Davidson diagonalization with overlap
     ethr =  1.68E-07,  avg # of iterations =  2.0

     negative rho (up, down):  0.000E+00 7.712E-04

     total cpu time spent up to now is     1590.2 secs

     total energy              =   -3997.20272168 Ry
     estimated scf accuracy    <       0.00001200 Ry

     total magnetization       =    20.52 Bohr mag/cell
     absolute magnetization    =    22.40 Bohr mag/cell

     iteration # 19     ecut=    54.00 Ry     beta= 0.70

! Arthur here, I broke off the calc as this seems a good .in file, time to sanity check!
