
     Program PWSCF v.6.8 starts on  3Dec2022 at 20:35:51 

     This program is part of the open-source Quantum ESPRESSO suite
     for quantum simulation of materials; please cite
         "P. Giannozzi et al., J. Phys.:Condens. Matter 21 395502 (2009);
         "P. Giannozzi et al., J. Phys.:Condens. Matter 29 465901 (2017);
         "P. Giannozzi et al., J. Chem. Phys. 152 154105 (2020);
          URL http://www.quantum-espresso.org", 
     in publications or presentations arising from this work. More details at
     http://www.quantum-espresso.org/quote

     Parallel version (MPI & OpenMP), running on      32 processor cores
     Number of MPI processes:                32
     Threads/MPI process:                     1

     MPI processes distributed on    10 nodes
     R & G space division:  proc/nbgrp/npool/nimage =      32
     141929 MiB available memory on the printing compute node when the environment starts

     Reading input from b54_Fe49_Si5.in

     Current dimensions of program PWSCF are:
     Max number of different atomic species (ntypx) = 10
     Max number of k-points (npk) =  40000
     Max angular momentum in pseudopotentials (lmaxx) =  4
     file Fe.pbe-spn-kjpaw_psl.0.2.1.UPF: wavefunction(s)  3D renormalized

     IMPORTANT: XC functional enforced from input :
     Exchange-correlation= PBE
                           (   1   4   3   4   0   0   0)
     Any further DFT definition will be discarded
     Please, verify this is what you really want

     Message from routine setup:
     using ibrav=0 with symmetry is DISCOURAGED, use correct ibrav instead

     Subspace diagonalization in iterative solution of the eigenvalue problem:
     one sub-group per band group will be used
     scalapack distributed-memory algorithm (size of sub-group:  5*  5 procs)


     Parallelization info
     --------------------
     sticks:   dense  smooth     PW     G-vecs:    dense   smooth      PW
     Min         293     169     45                21331     9371    1293
     Max         294     170     46                21334     9376    1296
     Sum        9377    5417   1449               682629   299939   41395

     Using Slab Decomposition



     bravais-lattice index     =            0
     lattice parameter (alat)  =      16.1774  a.u.
     unit-cell volume          =    4233.7721 (a.u.)^3
     number of atoms/cell      =           54
     number of atomic types    =            2
     number of electrons       =       804.00
     number of Kohn-Sham states=          482
     kinetic-energy cutoff     =      65.0000  Ry
     charge density cutoff     =     450.0000  Ry
     scf convergence threshold =      1.0E-08
     mixing beta               =       0.7000
     number of iterations used =            8  plain     mixing
     Exchange-correlation= PBE
                           (   1   4   3   4   0   0   0)

     celldm(1)=  16.177416  celldm(2)=   0.000000  celldm(3)=   0.000000
     celldm(4)=   0.000000  celldm(5)=   0.000000  celldm(6)=   0.000000

     crystal axes: (cart. coord. in units of alat)
               a(1) = (   1.000000   0.000000   0.000000 )  
               a(2) = (   0.000000   1.000000   0.000000 )  
               a(3) = (   0.000000   0.000000   1.000000 )  

     reciprocal axes: (cart. coord. in units 2 pi/alat)
               b(1) = (  1.000000  0.000000  0.000000 )  
               b(2) = (  0.000000  1.000000  0.000000 )  
               b(3) = (  0.000000  0.000000  1.000000 )  


     PseudoPot. # 1 for Fe read from file:
     ./Fe.pbe-spn-kjpaw_psl.0.2.1.UPF
     MD5 check sum: e86618425769142926afa95317d90200
     Pseudo is Projector augmented-wave + core cor, Zval = 16.0
     Generated using "atomic" code by A. Dal Corso  v.5.0.99 svn rev. 10869
     Shape of augmentation charge: PSQ
     Using radial grid of 1191 points,  6 beta functions with: 
                l(1) =   0
                l(2) =   0
                l(3) =   1
                l(4) =   1
                l(5) =   2
                l(6) =   2
     Q(r) pseudized with 0 coefficients 


     PseudoPot. # 2 for Si read from file:
     ./Si.pbe-n-rrkjus_psl.1.0.0.UPF
     MD5 check sum: 0b0bb1205258b0d07b9f9672cf965d36
     Pseudo is Ultrasoft + core correction, Zval =  4.0
     Generated using "atomic" code by A. Dal Corso  v.5.1
     Using radial grid of 1141 points,  6 beta functions with: 
                l(1) =   0
                l(2) =   0
                l(3) =   1
                l(4) =   1
                l(5) =   2
                l(6) =   2
     Q(r) pseudized with 0 coefficients 


     atomic species   valence    mass     pseudopotential
        Fe            16.00    55.84500     Fe( 1.00)
        Si             4.00    28.08500     Si( 1.00)

     Starting magnetic structure 
     atomic species   magnetization
        Fe           1.000
        Si           1.000

     24 Sym. Ops. (no inversion) found



   Cartesian axes

     site n.     atom                  positions (alat units)
         1           Fe  tau(   1) = (   0.0000000   0.0000000   0.0000000  )
         2           Fe  tau(   2) = (   0.0000000   0.0000000   0.3333333  )
         3           Fe  tau(   3) = (   0.0000000   0.0000000   0.6666667  )
         4           Fe  tau(   4) = (   0.3333333   0.0000000   0.0000000  )
         5           Fe  tau(   5) = (   0.6666667   0.0000000   0.0000000  )
         6           Fe  tau(   6) = (   0.0000000   0.3333333   0.0000000  )
         7           Fe  tau(   7) = (   0.0000000   0.6666667   0.0000000  )
         8           Fe  tau(   8) = (   0.1666670   0.1666670   0.5000000  )
         9           Fe  tau(   9) = (   0.1666670   0.1666670   0.8333330  )
        10           Fe  tau(  10) = (   0.5000000   0.1666670   0.1666670  )
        11           Fe  tau(  11) = (   0.8333330   0.1666670   0.1666670  )
        12           Fe  tau(  12) = (   0.1666670   0.5000000   0.1666670  )
        13           Fe  tau(  13) = (   0.1666670   0.8333330   0.1666670  )
        14           Fe  tau(  14) = (   0.0000000   0.3333333   0.3333333  )
        15           Fe  tau(  15) = (   0.0000000   0.6666667   0.6666667  )
        16           Fe  tau(  16) = (   0.0000000   0.6666667   0.3333333  )
        17           Fe  tau(  17) = (   0.0000000   0.3333333   0.6666667  )
        18           Fe  tau(  18) = (   0.3333333   0.0000000   0.3333333  )
        19           Fe  tau(  19) = (   0.6666667   0.0000000   0.6666667  )
        20           Fe  tau(  20) = (   0.3333333   0.0000000   0.6666667  )
        21           Fe  tau(  21) = (   0.6666667   0.0000000   0.3333333  )
        22           Fe  tau(  22) = (   0.3333333   0.3333333   0.0000000  )
        23           Fe  tau(  23) = (   0.6666667   0.6666667   0.0000000  )
        24           Fe  tau(  24) = (   0.6666667   0.3333333   0.0000000  )
        25           Fe  tau(  25) = (   0.3333333   0.6666667   0.0000000  )
        26           Fe  tau(  26) = (   0.1666670   0.5000000   0.5000000  )
        27           Fe  tau(  27) = (   0.1666670   0.8333330   0.5000000  )
        28           Fe  tau(  28) = (   0.1666670   0.5000000   0.8333330  )
        29           Fe  tau(  29) = (   0.5000000   0.1666670   0.5000000  )
        30           Fe  tau(  30) = (   0.5000000   0.1666670   0.8333330  )
        31           Fe  tau(  31) = (   0.8333330   0.1666670   0.5000000  )
        32           Fe  tau(  32) = (   0.5000000   0.5000000   0.1666670  )
        33           Fe  tau(  33) = (   0.8333330   0.5000000   0.1666670  )
        34           Fe  tau(  34) = (   0.5000000   0.8333330   0.1666670  )
        35           Fe  tau(  35) = (   0.3333333   0.3333333   0.3333333  )
        36           Fe  tau(  36) = (   0.6666667   0.6666667   0.6666667  )
        37           Fe  tau(  37) = (   0.6666667   0.6666667   0.3333333  )
        38           Fe  tau(  38) = (   0.3333333   0.3333333   0.6666667  )
        39           Fe  tau(  39) = (   0.6666667   0.3333333   0.6666667  )
        40           Fe  tau(  40) = (   0.3333333   0.6666667   0.3333333  )
        41           Fe  tau(  41) = (   0.3333333   0.6666667   0.6666667  )
        42           Fe  tau(  42) = (   0.6666667   0.3333333   0.3333333  )
        43           Fe  tau(  43) = (   0.8333330   0.8333330   0.8333330  )
        44           Fe  tau(  44) = (   0.8333330   0.8333330   0.5000000  )
        45           Fe  tau(  45) = (   0.5000000   0.5000000   0.8333330  )
        46           Fe  tau(  46) = (   0.8333330   0.5000000   0.8333330  )
        47           Fe  tau(  47) = (   0.5000000   0.8333330   0.5000000  )
        48           Fe  tau(  48) = (   0.5000000   0.8333330   0.8333330  )
        49           Fe  tau(  49) = (   0.8333330   0.5000000   0.5000000  )
        50           Si  tau(  50) = (   0.1666670   0.1666670   0.1666670  )
        51           Si  tau(  51) = (   0.1666670   0.8333330   0.8333330  )
        52           Si  tau(  52) = (   0.8333330   0.1666670   0.8333330  )
        53           Si  tau(  53) = (   0.8333330   0.8333330   0.1666670  )
        54           Si  tau(  54) = (   0.5000000   0.5000000   0.5000000  )

     number of k points=    10  Marzari-Vanderbilt smearing, width (Ry)=  0.0050
                       cart. coord. in units 2pi/alat
        k(    1) = (   0.0000000   0.0000000   0.0000000), wk =   0.0080000
        k(    2) = (   0.0000000   0.0000000   0.2000000), wk =   0.0480000
        k(    3) = (   0.0000000   0.0000000   0.4000000), wk =   0.0480000
        k(    4) = (   0.0000000   0.2000000   0.2000000), wk =   0.0960000
        k(    5) = (   0.0000000   0.2000000   0.4000000), wk =   0.1920000
        k(    6) = (   0.0000000   0.4000000   0.4000000), wk =   0.0960000
        k(    7) = (   0.2000000   0.2000000   0.2000000), wk =   0.0640000
        k(    8) = (   0.2000000   0.2000000   0.4000000), wk =   0.1920000
        k(    9) = (   0.2000000   0.4000000   0.4000000), wk =   0.1920000
        k(   10) = (   0.4000000   0.4000000   0.4000000), wk =   0.0640000

     Dense  grid:   682629 G-vectors     FFT dimensions: ( 120, 120, 120)

     Smooth grid:   299939 G-vectors     FFT dimensions: (  90,  90,  90)

     Estimated max dynamical RAM per process >     332.01 MB

     Estimated total dynamical RAM >      10.38 GB

     Check: negative core charge=   -0.000082
     Generating pointlists ...
     new r_m :   0.1191 (alat units)  1.9264 (a.u.) for type    1
     new r_m :   0.1191 (alat units)  1.9264 (a.u.) for type    2

     Initial potential from superposition of free atoms

     starting charge  803.97572, renormalised to  804.00000
     Starting wfcs are  657 randomized atomic wfcs
     Checking if some PAW data can be deallocated... 

     total cpu time spent up to now is       96.0 secs

     Self-consistent Calculation

     iteration #  1     ecut=    65.00 Ry     beta= 0.70
     Davidson diagonalization with overlap
     ethr =  1.00E-02,  avg # of iterations =  2.5

     negative rho (up, down):  0.000E+00 8.075E-03

     total cpu time spent up to now is      350.2 secs

     total energy              =  -16160.62571180 Ry
     estimated scf accuracy    <     205.41412557 Ry

     total magnetization       =   160.00 Bohr mag/cell
     absolute magnetization    =   212.60 Bohr mag/cell

     iteration #  2     ecut=    65.00 Ry     beta= 0.70
     Davidson diagonalization with overlap
     ethr =  1.00E-02,  avg # of iterations =  3.4

     negative rho (up, down):  0.000E+00 6.392E-03

     total cpu time spent up to now is      650.9 secs

     total energy              =  -16162.83392023 Ry
     estimated scf accuracy    <      67.56853529 Ry

     total magnetization       =   143.51 Bohr mag/cell
     absolute magnetization    =   159.92 Bohr mag/cell

     iteration #  3     ecut=    65.00 Ry     beta= 0.70
     Davidson diagonalization with overlap
     ethr =  8.40E-03,  avg # of iterations =  4.9

     negative rho (up, down):  0.000E+00 5.918E-03

     total cpu time spent up to now is     1062.3 secs

     total energy              =  -16067.56700196 Ry
     estimated scf accuracy    <    1449.04703939 Ry

     total magnetization       =    76.70 Bohr mag/cell
     absolute magnetization    =    81.47 Bohr mag/cell

     iteration #  4     ecut=    65.00 Ry     beta= 0.70
     Davidson diagonalization with overlap
     ethr =  8.40E-03,  avg # of iterations =  5.7

     negative rho (up, down):  0.000E+00 4.975E-03

     total cpu time spent up to now is     1525.4 secs

     total energy              =  -16138.89245004 Ry
     estimated scf accuracy    <    1024.86697554 Ry

     total magnetization       =    62.67 Bohr mag/cell
     absolute magnetization    =    73.34 Bohr mag/cell

     iteration #  5     ecut=    65.00 Ry     beta= 0.70
     Davidson diagonalization with overlap
     ethr =  8.40E-03,  avg # of iterations =  4.6

     negative rho (up, down):  0.000E+00 4.046E-03

     total cpu time spent up to now is     1903.4 secs

     total energy              =  -16172.98033798 Ry
     estimated scf accuracy    <     363.85647888 Ry

     total magnetization       =    59.47 Bohr mag/cell
     absolute magnetization    =    69.07 Bohr mag/cell

     iteration #  6     ecut=    65.00 Ry     beta= 0.70
     Davidson diagonalization with overlap
     ethr =  8.40E-03,  avg # of iterations =  3.1

     negative rho (up, down):  0.000E+00 3.729E-03

     total cpu time spent up to now is     2174.7 secs

     total energy              =  -16185.48993153 Ry
     estimated scf accuracy    <     222.16040042 Ry

     total magnetization       =    53.55 Bohr mag/cell
     absolute magnetization    =    61.75 Bohr mag/cell

     iteration #  7     ecut=    65.00 Ry     beta= 0.70
     Davidson diagonalization with overlap
     ethr =  8.40E-03,  avg # of iterations =  2.2

     negative rho (up, down):  0.000E+00 3.685E-03

     total cpu time spent up to now is     2405.4 secs

     total energy              =  -16189.64454627 Ry
     estimated scf accuracy    <      31.17949787 Ry

     total magnetization       =    84.79 Bohr mag/cell
     absolute magnetization    =    91.21 Bohr mag/cell

     iteration #  8     ecut=    65.00 Ry     beta= 0.70
     Davidson diagonalization with overlap
     ethr =  3.88E-03,  avg # of iterations =  1.6

     negative rho (up, down):  0.000E+00 3.629E-03

     total cpu time spent up to now is     2612.3 secs

     total energy              =  -16189.83028827 Ry
     estimated scf accuracy    <      34.86830040 Ry

     total magnetization       =    83.56 Bohr mag/cell
     absolute magnetization    =    89.73 Bohr mag/cell

     iteration #  9     ecut=    65.00 Ry     beta= 0.70
     Davidson diagonalization with overlap
     ethr =  3.88E-03,  avg # of iterations =  1.0

     negative rho (up, down):  0.000E+00 3.921E-03

     total cpu time spent up to now is     2795.4 secs

     total energy              =  -16190.81584697 Ry
     estimated scf accuracy    <      10.82476789 Ry

     total magnetization       =    94.43 Bohr mag/cell
     absolute magnetization    =   100.18 Bohr mag/cell

     iteration # 10     ecut=    65.00 Ry     beta= 0.70
     Davidson diagonalization with overlap
     ethr =  1.35E-03,  avg # of iterations =  1.9

     negative rho (up, down):  0.000E+00 4.435E-03

     total cpu time spent up to now is     3012.5 secs

     total energy              =  -16190.39678330 Ry
     estimated scf accuracy    <      19.61730974 Ry

     total magnetization       =    95.09 Bohr mag/cell
     absolute magnetization    =   100.98 Bohr mag/cell

     iteration # 11     ecut=    65.00 Ry     beta= 0.70
     Davidson diagonalization with overlap
     ethr =  1.35E-03,  avg # of iterations =  1.1

     negative rho (up, down):  0.000E+00 4.494E-03

     total cpu time spent up to now is     3202.7 secs

     total energy              =  -16190.98849043 Ry
     estimated scf accuracy    <       4.96888965 Ry

     total magnetization       =   102.73 Bohr mag/cell
     absolute magnetization    =   109.51 Bohr mag/cell

     iteration # 12     ecut=    65.00 Ry     beta= 0.70
     Davidson diagonalization with overlap
     ethr =  6.18E-04,  avg # of iterations =  2.1

     negative rho (up, down):  0.000E+00 4.567E-03

     total cpu time spent up to now is     3427.0 secs

     total energy              =  -16190.71181995 Ry
     estimated scf accuracy    <      18.93664511 Ry

     total magnetization       =    99.74 Bohr mag/cell
     absolute magnetization    =   106.25 Bohr mag/cell

     iteration # 13     ecut=    65.00 Ry     beta= 0.70
     Davidson diagonalization with overlap
     ethr =  6.18E-04,  avg # of iterations =  2.0

     negative rho (up, down):  0.000E+00 4.755E-03

     total cpu time spent up to now is     3646.9 secs

     total energy              =  -16191.26882465 Ry
     estimated scf accuracy    <       2.19033675 Ry

     total magnetization       =   103.02 Bohr mag/cell
     absolute magnetization    =   109.50 Bohr mag/cell

     iteration # 14     ecut=    65.00 Ry     beta= 0.70
     Davidson diagonalization with overlap
     ethr =  2.72E-04,  avg # of iterations =  3.9

     negative rho (up, down):  0.000E+00 4.691E-03

     total cpu time spent up to now is     3933.2 secs

     total energy              =  -16191.02703397 Ry
     estimated scf accuracy    <      18.30898276 Ry

     total magnetization       =   100.77 Bohr mag/cell
     absolute magnetization    =   107.34 Bohr mag/cell

     iteration # 15     ecut=    65.00 Ry     beta= 0.70
     Davidson diagonalization with overlap
     ethr =  2.72E-04,  avg # of iterations =  2.0

     negative rho (up, down):  0.000E+00 4.730E-03

     total cpu time spent up to now is     4154.3 secs

     total energy              =  -16191.46292879 Ry
     estimated scf accuracy    <       1.21238260 Ry

     total magnetization       =   104.35 Bohr mag/cell
     absolute magnetization    =   111.00 Bohr mag/cell

     iteration # 16     ecut=    65.00 Ry     beta= 0.70
     Davidson diagonalization with overlap
     ethr =  1.51E-04,  avg # of iterations =  2.1

     negative rho (up, down):  0.000E+00 4.836E-03

     total cpu time spent up to now is     4371.8 secs

     total energy              =  -16191.51248177 Ry
     estimated scf accuracy    <       0.37452981 Ry

     total magnetization       =   103.58 Bohr mag/cell
     absolute magnetization    =   110.30 Bohr mag/cell

     iteration # 17     ecut=    65.00 Ry     beta= 0.70
     Davidson diagonalization with overlap
     c_bands:  1 eigenvalues not converged
     ethr =  4.66E-05,  avg # of iterations =  6.5

     negative rho (up, down):  0.000E+00 5.106E-03

     total cpu time spent up to now is     4690.5 secs

     total energy              =  -16191.51605221 Ry
     estimated scf accuracy    <       0.72245567 Ry

     total magnetization       =   105.65 Bohr mag/cell
     absolute magnetization    =   112.26 Bohr mag/cell

     iteration # 18     ecut=    65.00 Ry     beta= 0.70
     Davidson diagonalization with overlap
     ethr =  4.66E-05,  avg # of iterations =  2.5

     negative rho (up, down):  0.000E+00 5.108E-03

     total cpu time spent up to now is     4926.9 secs

     total energy              =  -16191.50560513 Ry
     estimated scf accuracy    <       0.71247248 Ry

     total magnetization       =   106.51 Bohr mag/cell
     absolute magnetization    =   113.29 Bohr mag/cell

     iteration # 19     ecut=    65.00 Ry     beta= 0.70
     Davidson diagonalization with overlap
     ethr =  4.66E-05,  avg # of iterations =  1.4

     negative rho (up, down):  0.000E+00 5.088E-03

     total cpu time spent up to now is     5126.1 secs

     total energy              =  -16191.53997855 Ry
     estimated scf accuracy    <       0.11209071 Ry

     total magnetization       =   105.84 Bohr mag/cell
     absolute magnetization    =   112.77 Bohr mag/cell

     iteration # 20     ecut=    65.00 Ry     beta= 0.70
     Davidson diagonalization with overlap
     ethr =  1.39E-05,  avg # of iterations =  7.5

     negative rho (up, down):  0.000E+00 5.172E-03

     total cpu time spent up to now is     5501.0 secs

     total energy              =  -16191.54888332 Ry
     estimated scf accuracy    <       0.07149671 Ry

     total magnetization       =   105.50 Bohr mag/cell
     absolute magnetization    =   112.44 Bohr mag/cell

     iteration # 21     ecut=    65.00 Ry     beta= 0.70
     Davidson diagonalization with overlap
     ethr =  8.89E-06,  avg # of iterations =  2.3

     negative rho (up, down):  0.000E+00 5.251E-03

     total cpu time spent up to now is     5732.3 secs

     total energy              =  -16191.55378515 Ry
     estimated scf accuracy    <       0.10624908 Ry

     total magnetization       =   106.03 Bohr mag/cell
     absolute magnetization    =   113.03 Bohr mag/cell

     iteration # 22     ecut=    65.00 Ry     beta= 0.70
     Davidson diagonalization with overlap
     ethr =  8.89E-06,  avg # of iterations =  1.1

     negative rho (up, down):  0.000E+00 5.422E-03

     total cpu time spent up to now is     5918.1 secs

     total energy              =  -16191.55519851 Ry
     estimated scf accuracy    <       0.06626654 Ry

     total magnetization       =   106.25 Bohr mag/cell
     absolute magnetization    =   113.31 Bohr mag/cell

     iteration # 23     ecut=    65.00 Ry     beta= 0.70
     Davidson diagonalization with overlap
     ethr =  8.24E-06,  avg # of iterations =  2.0

     negative rho (up, down):  0.000E+00 5.437E-03

     total cpu time spent up to now is     6133.4 secs

     total energy              =  -16191.55724323 Ry
     estimated scf accuracy    <       0.07044964 Ry

     total magnetization       =   107.21 Bohr mag/cell
     absolute magnetization    =   114.35 Bohr mag/cell

     iteration # 24     ecut=    65.00 Ry     beta= 0.70
     Davidson diagonalization with overlap
     ethr =  8.24E-06,  avg # of iterations =  1.1

     negative rho (up, down):  0.000E+00 5.392E-03

     total cpu time spent up to now is     6322.2 secs

     total energy              =  -16191.55669863 Ry
     estimated scf accuracy    <       0.07398142 Ry

     total magnetization       =   107.04 Bohr mag/cell
     absolute magnetization    =   114.26 Bohr mag/cell

     iteration # 25     ecut=    65.00 Ry     beta= 0.70
     Davidson diagonalization with overlap
     ethr =  8.24E-06,  avg # of iterations =  1.9

     negative rho (up, down):  0.000E+00 5.342E-03

     total cpu time spent up to now is     6544.3 secs

     total energy              =  -16191.55192721 Ry
     estimated scf accuracy    <       0.15428256 Ry

     total magnetization       =   106.76 Bohr mag/cell
     absolute magnetization    =   113.98 Bohr mag/cell

     iteration # 26     ecut=    65.00 Ry     beta= 0.70
     Davidson diagonalization with overlap
     ethr =  8.24E-06,  avg # of iterations =  2.0

     negative rho (up, down):  0.000E+00 5.407E-03

     total cpu time spent up to now is     6764.9 secs

     total energy              =  -16191.54881844 Ry
     estimated scf accuracy    <       0.29943841 Ry

     total magnetization       =   106.94 Bohr mag/cell
     absolute magnetization    =   114.08 Bohr mag/cell

     iteration # 27     ecut=    65.00 Ry     beta= 0.70
     Davidson diagonalization with overlap
     ethr =  8.24E-06,  avg # of iterations =  3.1

     negative rho (up, down):  0.000E+00 5.456E-03

     total cpu time spent up to now is     7028.0 secs

     total energy              =  -16191.53464859 Ry
     estimated scf accuracy    <       0.62262667 Ry

     total magnetization       =   105.84 Bohr mag/cell
     absolute magnetization    =   113.16 Bohr mag/cell

     iteration # 28     ecut=    65.00 Ry     beta= 0.70
     Davidson diagonalization with overlap
     ethr =  8.24E-06,  avg # of iterations =  2.0

     negative rho (up, down):  0.000E+00 5.450E-03

     total cpu time spent up to now is     7257.9 secs

     total energy              =  -16191.55999432 Ry
     estimated scf accuracy    <       0.01888037 Ry

     total magnetization       =   107.04 Bohr mag/cell
     absolute magnetization    =   114.29 Bohr mag/cell

     iteration # 29     ecut=    65.00 Ry     beta= 0.70
     Davidson diagonalization with overlap
     ethr =  2.35E-06,  avg # of iterations =  1.9

     negative rho (up, down):  0.000E+00 5.494E-03

     total cpu time spent up to now is     7474.5 secs

     total energy              =  -16191.56148055 Ry
     estimated scf accuracy    <       0.01036532 Ry

     total magnetization       =   107.18 Bohr mag/cell
     absolute magnetization    =   114.42 Bohr mag/cell

     iteration # 30     ecut=    65.00 Ry     beta= 0.70
     Davidson diagonalization with overlap
     ethr =  1.29E-06,  avg # of iterations =  1.1

     negative rho (up, down):  0.000E+00 5.455E-03

     total cpu time spent up to now is     7663.1 secs

     total energy              =  -16191.56049559 Ry
     estimated scf accuracy    <       0.00457735 Ry

     total magnetization       =   107.42 Bohr mag/cell
     absolute magnetization    =   114.69 Bohr mag/cell

     iteration # 31     ecut=    65.00 Ry     beta= 0.70
     Davidson diagonalization with overlap
     ethr =  5.69E-07,  avg # of iterations =  4.4

     negative rho (up, down):  0.000E+00 5.498E-03

     total cpu time spent up to now is     7991.5 secs

     total energy              =  -16191.55694915 Ry
     estimated scf accuracy    <       0.11013978 Ry

     total magnetization       =   107.15 Bohr mag/cell
     absolute magnetization    =   114.38 Bohr mag/cell

     iteration # 32     ecut=    65.00 Ry     beta= 0.70
     Davidson diagonalization with overlap
     ethr =  5.69E-07,  avg # of iterations =  3.5

     negative rho (up, down):  0.000E+00 5.501E-03

     total cpu time spent up to now is     8297.3 secs

     total energy              =  -16191.56190494 Ry
     estimated scf accuracy    <       0.00563142 Ry

     total magnetization       =   107.41 Bohr mag/cell
     absolute magnetization    =   114.69 Bohr mag/cell

     iteration # 33     ecut=    65.00 Ry     beta= 0.70
     Davidson diagonalization with overlap
     ethr =  5.69E-07,  avg # of iterations =  1.8

     negative rho (up, down):  0.000E+00 5.507E-03

     total cpu time spent up to now is     8507.9 secs

     total energy              =  -16191.56197648 Ry
     estimated scf accuracy    <       0.00316116 Ry

     total magnetization       =   107.37 Bohr mag/cell
     absolute magnetization    =   114.67 Bohr mag/cell

     iteration # 34     ecut=    65.00 Ry     beta= 0.70
     Davidson diagonalization with overlap
     ethr =  3.93E-07,  avg # of iterations =  1.9

     negative rho (up, down):  0.000E+00 5.508E-03

     total cpu time spent up to now is     8717.2 secs

     total energy              =  -16191.56178779 Ry
     estimated scf accuracy    <       0.00580492 Ry

     total magnetization       =   107.45 Bohr mag/cell
     absolute magnetization    =   114.74 Bohr mag/cell

     iteration # 35     ecut=    65.00 Ry     beta= 0.70
     Davidson diagonalization with overlap
     ethr =  3.93E-07,  avg # of iterations =  2.0

     negative rho (up, down):  0.000E+00 5.542E-03

     total cpu time spent up to now is     8949.9 secs

     total energy              =  -16191.56131567 Ry
     estimated scf accuracy    <       0.02012380 Ry

     total magnetization       =   107.50 Bohr mag/cell
     absolute magnetization    =   114.78 Bohr mag/cell

     iteration # 36     ecut=    65.00 Ry     beta= 0.70
     Davidson diagonalization with overlap
     ethr =  3.93E-07,  avg # of iterations =  2.0

     negative rho (up, down):  0.000E+00 5.580E-03

     total cpu time spent up to now is     9181.5 secs

     total energy              =  -16191.56164756 Ry
     estimated scf accuracy    <       0.00997657 Ry

     total magnetization       =   107.53 Bohr mag/cell
     absolute magnetization    =   114.86 Bohr mag/cell

     iteration # 37     ecut=    65.00 Ry     beta= 0.70
     Davidson diagonalization with overlap
     ethr =  3.93E-07,  avg # of iterations =  3.9

     negative rho (up, down):  0.000E+00 5.538E-03

     total cpu time spent up to now is     9485.3 secs

     total energy              =  -16191.55986980 Ry
     estimated scf accuracy    <       0.05111676 Ry

     total magnetization       =   107.61 Bohr mag/cell
     absolute magnetization    =   114.99 Bohr mag/cell

     iteration # 38     ecut=    65.00 Ry     beta= 0.70
     Davidson diagonalization with overlap
     ethr =  3.93E-07,  avg # of iterations =  2.8

     negative rho (up, down):  0.000E+00 5.526E-03

     total cpu time spent up to now is     9747.7 secs

     total energy              =  -16191.56212855 Ry
     estimated scf accuracy    <       0.00118166 Ry

     total magnetization       =   107.61 Bohr mag/cell
     absolute magnetization    =   114.93 Bohr mag/cell

     iteration # 39     ecut=    65.00 Ry     beta= 0.70
     Davidson diagonalization with overlap
     ethr =  1.47E-07,  avg # of iterations =  2.0

     negative rho (up, down):  0.000E+00 5.539E-03

     total cpu time spent up to now is     9987.7 secs

     total energy              =  -16191.56212151 Ry
     estimated scf accuracy    <       0.00532143 Ry

     total magnetization       =   107.49 Bohr mag/cell
     absolute magnetization    =   114.82 Bohr mag/cell

     iteration # 40     ecut=    65.00 Ry     beta= 0.70
     Davidson diagonalization with overlap
     ethr =  1.47E-07,  avg # of iterations =  1.9

     negative rho (up, down):  0.000E+00 5.572E-03

     total cpu time spent up to now is    10210.1 secs

     total energy              =  -16191.56222924 Ry
     estimated scf accuracy    <       0.00076860 Ry

     total magnetization       =   107.57 Bohr mag/cell
     absolute magnetization    =   114.90 Bohr mag/cell

     iteration # 41     ecut=    65.00 Ry     beta= 0.70
     Davidson diagonalization with overlap
     ethr =  9.56E-08,  avg # of iterations =  2.1

     negative rho (up, down):  0.000E+00 5.545E-03

     total cpu time spent up to now is    10452.4 secs

     total energy              =  -16191.56206043 Ry
     estimated scf accuracy    <       0.00315003 Ry

     total magnetization       =   107.75 Bohr mag/cell
     absolute magnetization    =   115.10 Bohr mag/cell

     iteration # 42     ecut=    65.00 Ry     beta= 0.70
     Davidson diagonalization with overlap
     ethr =  9.56E-08,  avg # of iterations =  2.0

     negative rho (up, down):  0.000E+00 5.554E-03

     total cpu time spent up to now is    10695.9 secs

     total energy              =  -16191.56238877 Ry
     estimated scf accuracy    <       0.00088135 Ry

     total magnetization       =   107.61 Bohr mag/cell
     absolute magnetization    =   114.95 Bohr mag/cell

     iteration # 43     ecut=    65.00 Ry     beta= 0.70
     Davidson diagonalization with overlap
     ethr =  9.56E-08,  avg # of iterations =  1.4

     negative rho (up, down):  0.000E+00 5.557E-03

     total cpu time spent up to now is    10898.2 secs

     total energy              =  -16191.56241780 Ry
     estimated scf accuracy    <       0.00056855 Ry

     total magnetization       =   107.67 Bohr mag/cell
     absolute magnetization    =   115.01 Bohr mag/cell

     iteration # 44     ecut=    65.00 Ry     beta= 0.70
     Davidson diagonalization with overlap
     ethr =  7.07E-08,  avg # of iterations =  1.1

     negative rho (up, down):  0.000E+00 5.566E-03

     total cpu time spent up to now is    11082.7 secs

     total energy              =  -16191.56242265 Ry
     estimated scf accuracy    <       0.00037906 Ry

     total magnetization       =   107.66 Bohr mag/cell
     absolute magnetization    =   115.01 Bohr mag/cell

     iteration # 45     ecut=    65.00 Ry     beta= 0.70
     Davidson diagonalization with overlap
     ethr =  4.71E-08,  avg # of iterations =  1.5

     negative rho (up, down):  0.000E+00 5.563E-03

     total cpu time spent up to now is    11282.8 secs

     total energy              =  -16191.56243837 Ry
     estimated scf accuracy    <       0.00015349 Ry

     total magnetization       =   107.70 Bohr mag/cell
     absolute magnetization    =   115.05 Bohr mag/cell

     iteration # 46     ecut=    65.00 Ry     beta= 0.70
     Davidson diagonalization with overlap
     ethr =  1.91E-08,  avg # of iterations =  1.1

     negative rho (up, down):  0.000E+00 5.572E-03

     total cpu time spent up to now is    11471.7 secs

     total energy              =  -16191.56243202 Ry
     estimated scf accuracy    <       0.00029773 Ry

     total magnetization       =   107.71 Bohr mag/cell
     absolute magnetization    =   115.06 Bohr mag/cell

     iteration # 47     ecut=    65.00 Ry     beta= 0.70
     Davidson diagonalization with overlap
     ethr =  1.91E-08,  avg # of iterations =  2.0

     negative rho (up, down):  0.000E+00 5.566E-03

     total cpu time spent up to now is    11697.9 secs

     total energy              =  -16191.56244543 Ry
     estimated scf accuracy    <       0.00003591 Ry

     total magnetization       =   107.73 Bohr mag/cell
     absolute magnetization    =   115.08 Bohr mag/cell

     iteration # 48     ecut=    65.00 Ry     beta= 0.70
     Davidson diagonalization with overlap
     ethr =  4.47E-09,  avg # of iterations =  2.0

     negative rho (up, down):  0.000E+00 5.570E-03

     total cpu time spent up to now is    11927.1 secs

     total energy              =  -16191.56245251 Ry
     estimated scf accuracy    <       0.00005155 Ry

     total magnetization       =   107.71 Bohr mag/cell
     absolute magnetization    =   115.06 Bohr mag/cell

     iteration # 49     ecut=    65.00 Ry     beta= 0.70
     Davidson diagonalization with overlap
     ethr =  4.47E-09,  avg # of iterations =  2.0

     negative rho (up, down):  0.000E+00 5.570E-03

     total cpu time spent up to now is    12142.6 secs

     total energy              =  -16191.56245485 Ry
     estimated scf accuracy    <       0.00003491 Ry

     total magnetization       =   107.73 Bohr mag/cell
     absolute magnetization    =   115.08 Bohr mag/cell

     iteration # 50     ecut=    65.00 Ry     beta= 0.70
     Davidson diagonalization with overlap
     ethr =  4.34E-09,  avg # of iterations =  1.0

     negative rho (up, down):  0.000E+00 5.569E-03

     total cpu time spent up to now is    12329.8 secs

     total energy              =  -16191.56245558 Ry
     estimated scf accuracy    <       0.00000887 Ry

     total magnetization       =   107.73 Bohr mag/cell
     absolute magnetization    =   115.08 Bohr mag/cell

     iteration # 51     ecut=    65.00 Ry     beta= 0.70
     Davidson diagonalization with overlap
     ethr =  1.10E-09,  avg # of iterations =  2.3

     negative rho (up, down):  0.000E+00 5.571E-03

     total cpu time spent up to now is    12580.6 secs

     total energy              =  -16191.56245437 Ry
     estimated scf accuracy    <       0.00003890 Ry

     total magnetization       =   107.72 Bohr mag/cell
     absolute magnetization    =   115.07 Bohr mag/cell

     iteration # 52     ecut=    65.00 Ry     beta= 0.70
     Davidson diagonalization with overlap
     ethr =  1.10E-09,  avg # of iterations =  3.3

     negative rho (up, down):  0.000E+00 5.572E-03

     total cpu time spent up to now is    12858.6 secs

     total energy              =  -16191.56245685 Ry
     estimated scf accuracy    <       0.00001328 Ry

     total magnetization       =   107.73 Bohr mag/cell
     absolute magnetization    =   115.09 Bohr mag/cell

     iteration # 53     ecut=    65.00 Ry     beta= 0.70
     Davidson diagonalization with overlap
     ethr =  1.10E-09,  avg # of iterations =  2.0

     negative rho (up, down):  0.000E+00 5.572E-03

     total cpu time spent up to now is    13088.6 secs

     total energy              =  -16191.56245700 Ry
     estimated scf accuracy    <       0.00002244 Ry

     total magnetization       =   107.73 Bohr mag/cell
     absolute magnetization    =   115.09 Bohr mag/cell

     iteration # 54     ecut=    65.00 Ry     beta= 0.70
     Davidson diagonalization with overlap
     ethr =  1.10E-09,  avg # of iterations =  1.1

     negative rho (up, down):  0.000E+00 5.572E-03

     total cpu time spent up to now is    13282.1 secs

     total energy              =  -16191.56245790 Ry
     estimated scf accuracy    <       0.00000324 Ry

     total magnetization       =   107.74 Bohr mag/cell
     absolute magnetization    =   115.09 Bohr mag/cell

     iteration # 55     ecut=    65.00 Ry     beta= 0.70
     Davidson diagonalization with overlap
     ethr =  4.03E-10,  avg # of iterations =  2.8

     negative rho (up, down):  0.000E+00 5.572E-03

     total cpu time spent up to now is    13553.3 secs

     total energy              =  -16191.56245705 Ry
     estimated scf accuracy    <       0.00002450 Ry

     total magnetization       =   107.73 Bohr mag/cell
     absolute magnetization    =   115.09 Bohr mag/cell

     iteration # 56     ecut=    65.00 Ry     beta= 0.70
     Davidson diagonalization with overlap
     ethr =  4.03E-10,  avg # of iterations =  2.4

     negative rho (up, down):  0.000E+00 5.571E-03

     total cpu time spent up to now is    13799.5 secs

     total energy              =  -16191.56245732 Ry
     estimated scf accuracy    <       0.00001191 Ry

     total magnetization       =   107.73 Bohr mag/cell
     absolute magnetization    =   115.09 Bohr mag/cell

     iteration # 57     ecut=    65.00 Ry     beta= 0.70
     Davidson diagonalization with overlap
     ethr =  4.03E-10,  avg # of iterations =  2.1

     negative rho (up, down):  0.000E+00 5.572E-03

     total cpu time spent up to now is    14026.6 secs

     total energy              =  -16191.56245775 Ry
     estimated scf accuracy    <       0.00000598 Ry

     total magnetization       =   107.73 Bohr mag/cell
     absolute magnetization    =   115.09 Bohr mag/cell

     iteration # 58     ecut=    65.00 Ry     beta= 0.70
     Davidson diagonalization with overlap
     ethr =  4.03E-10,  avg # of iterations =  2.3

     negative rho (up, down):  0.000E+00 5.571E-03

     total cpu time spent up to now is    14261.2 secs

     total energy              =  -16191.56245808 Ry
     estimated scf accuracy    <       0.00000319 Ry

     total magnetization       =   107.74 Bohr mag/cell
     absolute magnetization    =   115.09 Bohr mag/cell

     iteration # 59     ecut=    65.00 Ry     beta= 0.70
     Davidson diagonalization with overlap
     ethr =  3.96E-10,  avg # of iterations =  1.2

     negative rho (up, down):  0.000E+00 5.571E-03

     total cpu time spent up to now is    14451.7 secs

     total energy              =  -16191.56245812 Ry
     estimated scf accuracy    <       0.00000389 Ry

     total magnetization       =   107.73 Bohr mag/cell
     absolute magnetization    =   115.09 Bohr mag/cell

     iteration # 60     ecut=    65.00 Ry     beta= 0.70
     Davidson diagonalization with overlap
     ethr =  3.96E-10,  avg # of iterations =  1.4

     negative rho (up, down):  0.000E+00 5.571E-03

     total cpu time spent up to now is    14650.0 secs

     total energy              =  -16191.56245816 Ry
     estimated scf accuracy    <       0.00000505 Ry

     total magnetization       =   107.73 Bohr mag/cell
     absolute magnetization    =   115.09 Bohr mag/cell

     iteration # 61     ecut=    65.00 Ry     beta= 0.70
     Davidson diagonalization with overlap
     ethr =  3.96E-10,  avg # of iterations =  1.1

     negative rho (up, down):  0.000E+00 5.571E-03

     total cpu time spent up to now is    14837.9 secs

     total energy              =  -16191.56245839 Ry
     estimated scf accuracy    <       0.00000084 Ry

     total magnetization       =   107.73 Bohr mag/cell
     absolute magnetization    =   115.09 Bohr mag/cell

     iteration # 62     ecut=    65.00 Ry     beta= 0.70
     Davidson diagonalization with overlap
     ethr =  1.05E-10,  avg # of iterations =  2.0

     negative rho (up, down):  0.000E+00 5.571E-03

     total cpu time spent up to now is    15063.7 secs

     total energy              =  -16191.56245845 Ry
     estimated scf accuracy    <       0.00000041 Ry

     total magnetization       =   107.73 Bohr mag/cell
     absolute magnetization    =   115.09 Bohr mag/cell

     iteration # 63     ecut=    65.00 Ry     beta= 0.70
     Davidson diagonalization with overlap
     ethr =  5.08E-11,  avg # of iterations =  2.1

     negative rho (up, down):  0.000E+00 5.571E-03

     total cpu time spent up to now is    15288.0 secs

     total energy              =  -16191.56245837 Ry
     estimated scf accuracy    <       0.00000097 Ry

     total magnetization       =   107.74 Bohr mag/cell
     absolute magnetization    =   115.09 Bohr mag/cell

     iteration # 64     ecut=    65.00 Ry     beta= 0.70
     Davidson diagonalization with overlap
     ethr =  5.08E-11,  avg # of iterations =  2.0

     negative rho (up, down):  0.000E+00 5.571E-03

     total cpu time spent up to now is    15518.5 secs

     total energy              =  -16191.56245840 Ry
     estimated scf accuracy    <       0.00000131 Ry

     total magnetization       =   107.73 Bohr mag/cell
     absolute magnetization    =   115.09 Bohr mag/cell

     iteration # 65     ecut=    65.00 Ry     beta= 0.70
     Davidson diagonalization with overlap
     ethr =  5.08E-11,  avg # of iterations =  1.8

     negative rho (up, down):  0.000E+00 5.571E-03

     total cpu time spent up to now is    15735.7 secs

     total energy              =  -16191.56245847 Ry
     estimated scf accuracy    <       0.00000022 Ry

     total magnetization       =   107.73 Bohr mag/cell
     absolute magnetization    =   115.09 Bohr mag/cell

     iteration # 66     ecut=    65.00 Ry     beta= 0.70
     Davidson diagonalization with overlap
     ethr =  2.73E-11,  avg # of iterations =  2.0

     negative rho (up, down):  0.000E+00 5.571E-03

     total cpu time spent up to now is    15960.4 secs

     total energy              =  -16191.56245846 Ry
     estimated scf accuracy    <       0.00000036 Ry

     total magnetization       =   107.74 Bohr mag/cell
     absolute magnetization    =   115.09 Bohr mag/cell

     iteration # 67     ecut=    65.00 Ry     beta= 0.70
     Davidson diagonalization with overlap
     ethr =  2.73E-11,  avg # of iterations =  1.9

     negative rho (up, down):  0.000E+00 5.571E-03

     total cpu time spent up to now is    16174.7 secs

     total energy              =  -16191.56245845 Ry
     estimated scf accuracy    <       0.00000068 Ry

     total magnetization       =   107.73 Bohr mag/cell
     absolute magnetization    =   115.09 Bohr mag/cell

     iteration # 68     ecut=    65.00 Ry     beta= 0.70
     Davidson diagonalization with overlap
     ethr =  2.73E-11,  avg # of iterations =  1.9

     negative rho (up, down):  0.000E+00 5.571E-03

     total cpu time spent up to now is    16393.0 secs

     total energy              =  -16191.56245847 Ry
     estimated scf accuracy    <       0.00000024 Ry

     total magnetization       =   107.73 Bohr mag/cell
     absolute magnetization    =   115.09 Bohr mag/cell

     iteration # 69     ecut=    65.00 Ry     beta= 0.70
     Davidson diagonalization with overlap
     ethr =  2.73E-11,  avg # of iterations =  2.1

     negative rho (up, down):  0.000E+00 5.571E-03

     total cpu time spent up to now is    16634.7 secs

     total energy              =  -16191.56245840 Ry
     estimated scf accuracy    <       0.00000214 Ry

     total magnetization       =   107.73 Bohr mag/cell
     absolute magnetization    =   115.09 Bohr mag/cell

     iteration # 70     ecut=    65.00 Ry     beta= 0.70
     Davidson diagonalization with overlap
     ethr =  2.73E-11,  avg # of iterations =  2.1

     negative rho (up, down):  0.000E+00 5.571E-03

     total cpu time spent up to now is    16871.3 secs

     total energy              =  -16191.56245846 Ry
     estimated scf accuracy    <       0.00000040 Ry

     total magnetization       =   107.73 Bohr mag/cell
     absolute magnetization    =   115.09 Bohr mag/cell

     iteration # 71     ecut=    65.00 Ry     beta= 0.70
     Davidson diagonalization with overlap
     ethr =  2.73E-11,  avg # of iterations =  1.1

     negative rho (up, down):  0.000E+00 5.571E-03

     total cpu time spent up to now is    17055.6 secs

     total energy              =  -16191.56245848 Ry
     estimated scf accuracy    <       0.00000002 Ry

     total magnetization       =   107.73 Bohr mag/cell
     absolute magnetization    =   115.09 Bohr mag/cell

     iteration # 72     ecut=    65.00 Ry     beta= 0.70
     Davidson diagonalization with overlap
     ethr =  2.68E-12,  avg # of iterations =  2.0

     negative rho (up, down):  0.000E+00 5.571E-03

     total cpu time spent up to now is    17277.6 secs

     total energy              =  -16191.56245849 Ry
     estimated scf accuracy    <       0.00000002 Ry

     total magnetization       =   107.73 Bohr mag/cell
     absolute magnetization    =   115.09 Bohr mag/cell

     iteration # 73     ecut=    65.00 Ry     beta= 0.70
     Davidson diagonalization with overlap
     ethr =  2.68E-12,  avg # of iterations =  2.0

     negative rho (up, down):  0.000E+00 5.571E-03

     total cpu time spent up to now is    17502.2 secs

     total energy              =  -16191.56245848 Ry
     estimated scf accuracy    <       0.00000001 Ry

     total magnetization       =   107.73 Bohr mag/cell
     absolute magnetization    =   115.09 Bohr mag/cell

     iteration # 74     ecut=    65.00 Ry     beta= 0.70
     Davidson diagonalization with overlap
     ethr =  1.52E-12,  avg # of iterations =  3.5

     negative rho (up, down):  0.000E+00 5.571E-03

     total cpu time spent up to now is    17796.1 secs

     total energy              =  -16191.56245848 Ry
     estimated scf accuracy    <       0.00000020 Ry

     total magnetization       =   107.73 Bohr mag/cell
     absolute magnetization    =   115.09 Bohr mag/cell

     iteration # 75     ecut=    65.00 Ry     beta= 0.70
     Davidson diagonalization with overlap
     ethr =  1.52E-12,  avg # of iterations =  2.4

     negative rho (up, down):  0.000E+00 5.571E-03

     total cpu time spent up to now is    18047.3 secs

     total energy              =  -16191.56245849 Ry
     estimated scf accuracy    <       0.00000001 Ry

     total magnetization       =   107.73 Bohr mag/cell
     absolute magnetization    =   115.09 Bohr mag/cell

     iteration # 76     ecut=    65.00 Ry     beta= 0.70
     Davidson diagonalization with overlap
     ethr =  1.52E-12,  avg # of iterations =  2.3

     negative rho (up, down):  0.000E+00 5.571E-03

     total cpu time spent up to now is    18280.8 secs

     total energy              =  -16191.56245849 Ry
     estimated scf accuracy    <       0.00000002 Ry

     total magnetization       =   107.73 Bohr mag/cell
     absolute magnetization    =   115.09 Bohr mag/cell

     iteration # 77     ecut=    65.00 Ry     beta= 0.70
     Davidson diagonalization with overlap
     ethr =  1.52E-12,  avg # of iterations =  1.5

     negative rho (up, down):  0.000E+00 5.571E-03

     Magnetic moment per site  (integrated on atomic sphere of radius R)
     atom   1 (R=0.119)  charge= 14.4987  magn=  1.6114
     atom   2 (R=0.119)  charge= 14.4509  magn=  2.0058
     atom   3 (R=0.119)  charge= 14.4509  magn=  2.0058
     atom   4 (R=0.119)  charge= 14.4509  magn=  2.0058
     atom   5 (R=0.119)  charge= 14.4509  magn=  2.0058
     atom   6 (R=0.119)  charge= 14.4509  magn=  2.0058
     atom   7 (R=0.119)  charge= 14.4509  magn=  2.0058
     atom   8 (R=0.119)  charge= 14.4084  magn=  2.4119
     atom   9 (R=0.119)  charge= 14.4185  magn=  2.3539
     atom  10 (R=0.119)  charge= 14.4084  magn=  2.4119
     atom  11 (R=0.119)  charge= 14.4185  magn=  2.3539
     atom  12 (R=0.119)  charge= 14.4084  magn=  2.4119
     atom  13 (R=0.119)  charge= 14.4185  magn=  2.3539
     atom  14 (R=0.119)  charge= 14.4272  magn=  2.1998
     atom  15 (R=0.119)  charge= 14.4272  magn=  2.1998
     atom  16 (R=0.119)  charge= 14.4272  magn=  2.1998
     atom  17 (R=0.119)  charge= 14.4272  magn=  2.1998
     atom  18 (R=0.119)  charge= 14.4272  magn=  2.1998
     atom  19 (R=0.119)  charge= 14.4272  magn=  2.1998
     atom  20 (R=0.119)  charge= 14.4272  magn=  2.1998
     atom  21 (R=0.119)  charge= 14.4272  magn=  2.1998
     atom  22 (R=0.119)  charge= 14.4272  magn=  2.1998
     atom  23 (R=0.119)  charge= 14.4272  magn=  2.1998
     atom  24 (R=0.119)  charge= 14.4272  magn=  2.1998
     atom  25 (R=0.119)  charge= 14.4272  magn=  2.1998
     atom  26 (R=0.119)  charge= 14.4120  magn=  2.4232
     atom  27 (R=0.119)  charge= 14.4084  magn=  2.4119
     atom  28 (R=0.119)  charge= 14.4084  magn=  2.4119
     atom  29 (R=0.119)  charge= 14.4120  magn=  2.4232
     atom  30 (R=0.119)  charge= 14.4084  magn=  2.4119
     atom  31 (R=0.119)  charge= 14.4084  magn=  2.4119
     atom  32 (R=0.119)  charge= 14.4120  magn=  2.4232
     atom  33 (R=0.119)  charge= 14.4084  magn=  2.4119
     atom  34 (R=0.119)  charge= 14.4084  magn=  2.4119
     atom  35 (R=0.119)  charge= 14.4449  magn=  2.1511
     atom  36 (R=0.119)  charge= 14.4229  magn=  2.2923
     atom  37 (R=0.119)  charge= 14.4449  magn=  2.1511
     atom  38 (R=0.119)  charge= 14.4229  magn=  2.2923
     atom  39 (R=0.119)  charge= 14.4449  magn=  2.1511
     atom  40 (R=0.119)  charge= 14.4229  magn=  2.2923
     atom  41 (R=0.119)  charge= 14.4449  magn=  2.1511
     atom  42 (R=0.119)  charge= 14.4229  magn=  2.2923
     atom  43 (R=0.119)  charge= 14.4185  magn=  2.3539
     atom  44 (R=0.119)  charge= 14.4084  magn=  2.4119
     atom  45 (R=0.119)  charge= 14.4120  magn=  2.4232
     atom  46 (R=0.119)  charge= 14.4084  magn=  2.4119
     atom  47 (R=0.119)  charge= 14.4120  magn=  2.4232
     atom  48 (R=0.119)  charge= 14.4084  magn=  2.4119
     atom  49 (R=0.119)  charge= 14.4120  magn=  2.4232
     atom  50 (R=0.119)  charge=  2.0790  magn= -0.1078
     atom  51 (R=0.119)  charge=  2.0790  magn= -0.1078
     atom  52 (R=0.119)  charge=  2.0790  magn= -0.1078
     atom  53 (R=0.119)  charge=  2.0790  magn= -0.1078
     atom  54 (R=0.119)  charge=  2.0841  magn= -0.1129

     total cpu time spent up to now is    18487.0 secs

     End of self-consistent calculation

 ------ SPIN UP ------------


          k = 0.0000 0.0000 0.0000 ( 37529 PWs)   bands (ev):

   -70.7373 -70.7330 -70.7330 -70.7330 -70.7183 -70.7075 -70.7075 -70.7071
   -70.7071 -70.7071 -70.7026 -70.7026 -70.7026 -70.7002 -70.7002 -70.7002
   -70.6918 -70.6886 -70.6886 -70.6862 -70.6862 -70.6862 -70.6533 -70.6533
   -70.6533 -70.6507 -70.5622 -70.5622 -70.5622 -70.5616 -70.5589 -70.5589
   -70.5589 -70.5584 -70.5584 -70.5584 -70.5577 -70.5577 -70.5575 -70.5575
   -70.5575 -70.5507 -70.4016 -70.4016 -70.4005 -70.4005 -70.4005 -70.4005
   -70.0694 -36.8977 -36.8923 -36.8923 -36.8923 -36.8921 -36.8921 -36.8843
   -36.8843 -36.8843 -36.8684 -36.8543 -36.8543 -36.8543 -36.8475 -36.8440
   -36.8440 -36.8440 -36.8304 -36.8304 -36.8230 -36.8230 -36.8230 -36.8166
   -36.8166 -36.8166 -36.8098 -36.8098 -36.8098 -36.8070 -36.8011 -36.8011
   -36.7908 -36.7908 -36.7908 -36.7893 -36.7893 -36.7893 -36.7874 -36.7874
   -36.7874 -36.7872 -36.7872 -36.7761 -36.7757 -36.7757 -36.7757 -36.7703
   -36.7703 -36.7703 -36.7641 -36.7641 -36.7599 -36.7599 -36.7599 -36.7391
   -36.7391 -36.7391 -36.7287 -36.7287 -36.7287 -36.7072 -36.7072 -36.7072
   -36.7035 -36.6904 -36.6904 -36.6904 -36.6836 -36.6825 -36.6825 -36.6825
   -36.6605 -36.6605 -36.6605 -36.6254 -36.6254 -36.6130 -36.6130 -36.6130
   -36.6092 -36.6092 -36.6092 -36.5946 -36.5927 -36.5927 -36.5927 -36.5919
   -36.5919 -36.5718 -36.5718 -36.5718 -36.5715 -36.5715 -36.5567 -36.5567
   -36.5567 -36.5548 -36.5519 -36.5519 -36.5519 -36.5491 -36.5491 -36.5491
   -36.5469 -36.5469 -36.5435 -36.5435 -36.5435 -36.5321 -36.5321 -36.5321
   -36.5283 -36.5283 -36.5190 -36.5190 -36.5190 -36.5172 -36.5172 -36.5172
   -36.4956 -36.4956 -36.4956 -36.4942 -36.4942 -36.4942 -36.4674 -36.4404
   -36.4336 -36.4336 -36.4336 -36.4295 -36.4295 -36.4231 -36.4231 -36.4231
   -36.4228 -36.4228 -36.4228 -36.4151 -36.4151 -36.4151 -36.4052 -36.4052
   -36.4052 -36.1268 -36.1268 -36.1268   7.1502   8.0591   8.3318   8.3318
     8.3318  10.6619  10.7050  10.7050  11.2206  11.2206  11.2206  11.6357
    11.6357  11.6357  11.8777  11.9766  11.9766  11.9766  12.2587  12.2587
    12.6395  12.6395  12.6395  12.7423  12.7423  12.8013  12.8013  12.8013
    12.9669  12.9669  12.9825  12.9825  12.9825  12.9993  13.0342  13.0342
    13.0342  13.2121  13.2121  13.2121  13.2874  13.2874  13.3099  13.4357
    13.5009  13.5009  13.5009  13.5510  13.5761  13.5761  13.5761  13.6583
    13.6583  13.6669  13.6669  13.6669  13.7168  13.7168  13.7168  13.7422
    13.8030  13.8030  13.8030  13.8912  13.8912  13.8912  13.9594  13.9594
    13.9594  13.9662  14.0089  14.0089  14.1315  14.1315  14.1315  14.1507
    14.1507  14.1507  14.1836  14.1836  14.2250  14.2250  14.2426  14.2426
    14.2426  14.3033  14.3135  14.3135  14.3135  14.3643  14.3643  14.3643
    14.4834  14.4834  14.4834  14.4859  14.4859  14.4859  14.5220  14.5220
    14.5296  14.5296  14.5296  14.5695  14.5695  14.5695  14.6268  14.6268
    14.6268  14.6467  14.6467  14.6658  14.8107  14.8107  14.8383  14.8524
    14.8524  14.8524  14.8622  14.8622  14.8622  14.9006  14.9006  14.9006
    14.9386  14.9386  14.9410  14.9410  14.9410  15.0131  15.0131  15.0131
    15.0372  15.1702  15.1702  15.1702  15.2261  15.2261  15.2261  15.2434
    15.2434  15.2434  15.4009  15.4690  15.4690  15.4690  15.4857  15.4857
    15.5198  15.5198  15.5198  15.5441  15.5441  15.5725  15.5725  15.5725
    15.6042  15.6042  15.6042  15.6426  15.6426  15.6426  15.7625  15.8867
    15.8867  15.9123  15.9123  15.9123  15.9275  15.9275  15.9275  15.9622
    16.0387  16.0387  16.0387  16.1124  16.1124  16.1124  16.1560  16.1560
    16.1560  16.2020  16.2020  16.2208  16.2208  16.2208  16.2903  16.2903
    16.2920  16.2920  16.2920  16.3303  16.3303  16.3303  16.3700  16.3700
    16.3700  16.3838  16.3838  16.3838  16.3910  16.3910  16.3910  16.4065
    16.4065  16.4065  16.4225  16.4225  16.4276  16.4427  16.4427  16.4427
    16.4448  16.4448  16.4448  16.4810  16.4810  16.4810  16.4905  16.5067
    16.5067  16.5594  16.5633  16.5633  16.5633  16.5651  16.5651  16.6090
    16.6090  16.6090  16.6535  16.6535  16.6535  16.6559  16.6559  16.6966
    16.6966  16.6966  16.7937  16.7937  16.8300  16.8300  16.8300  16.8744
    16.8744  16.8744  16.9424  16.9616  16.9616  17.1066  17.1066  17.1066
    17.3557  17.3557  17.3557  17.4131  17.4131  17.4131  17.5094  17.5094
    17.6863  17.7054  17.7054  17.7054  18.2076  18.3331  18.3331  18.3331
    18.5513  18.5513  18.5513  18.6498  18.9388  18.9388  19.1563  19.1563
    19.1563  19.2265  19.2265  19.2265  19.3940  19.3940  19.3940  19.4651
    19.9105  19.9105

          k = 0.0000 0.0000 0.2000 ( 37469 PWs)   bands (ev):

   -70.7369 -70.7334 -70.7330 -70.7330 -70.7179 -70.7103 -70.7073 -70.7069
   -70.7069 -70.7050 -70.7030 -70.7030 -70.7030 -70.7002 -70.7001 -70.7001
   -70.6914 -70.6889 -70.6885 -70.6861 -70.6861 -70.6857 -70.6538 -70.6533
   -70.6533 -70.6504 -70.5625 -70.5621 -70.5621 -70.5615 -70.5590 -70.5589
   -70.5589 -70.5589 -70.5584 -70.5584 -70.5578 -70.5576 -70.5575 -70.5575
   -70.5561 -70.5511 -70.4016 -70.4015 -70.4008 -70.4005 -70.4005 -70.4003
   -70.0694 -36.8982 -36.8969 -36.8930 -36.8930 -36.8924 -36.8846 -36.8807
   -36.8807 -36.8801 -36.8694 -36.8567 -36.8567 -36.8530 -36.8503 -36.8416
   -36.8416 -36.8390 -36.8365 -36.8327 -36.8264 -36.8260 -36.8260 -36.8166
   -36.8157 -36.8157 -36.8138 -36.8137 -36.8137 -36.8119 -36.8066 -36.7994
   -36.7986 -36.7986 -36.7976 -36.7938 -36.7938 -36.7917 -36.7887 -36.7887
   -36.7862 -36.7856 -36.7832 -36.7754 -36.7738 -36.7735 -36.7735 -36.7679
   -36.7648 -36.7560 -36.7560 -36.7534 -36.7534 -36.7525 -36.7474 -36.7377
   -36.7377 -36.7372 -36.7297 -36.7297 -36.7281 -36.7077 -36.7077 -36.7073
   -36.7049 -36.6903 -36.6903 -36.6900 -36.6868 -36.6823 -36.6823 -36.6813
   -36.6620 -36.6620 -36.6611 -36.6266 -36.6258 -36.6180 -36.6180 -36.6144
   -36.6113 -36.6058 -36.6058 -36.6010 -36.5940 -36.5940 -36.5920 -36.5917
   -36.5893 -36.5783 -36.5775 -36.5765 -36.5765 -36.5648 -36.5632 -36.5600
   -36.5586 -36.5586 -36.5553 -36.5542 -36.5542 -36.5488 -36.5488 -36.5488
   -36.5483 -36.5409 -36.5396 -36.5396 -36.5373 -36.5276 -36.5262 -36.5262
   -36.5259 -36.5209 -36.5201 -36.5201 -36.5166 -36.5156 -36.5156 -36.5153
   -36.4983 -36.4971 -36.4971 -36.4940 -36.4940 -36.4940 -36.4710 -36.4396
   -36.4337 -36.4336 -36.4336 -36.4301 -36.4298 -36.4237 -36.4237 -36.4231
   -36.4229 -36.4223 -36.4223 -36.4159 -36.4147 -36.4147 -36.4061 -36.4061
   -36.4056 -36.1268 -36.1268 -36.1267   7.2065   7.9384   8.3394   8.3394
     8.3756  10.5834  10.6774  10.7702  11.1425  11.1425  11.3923  11.6628
    11.6628  11.6962  11.7187  11.8084  12.1019  12.1019  12.3627  12.4665
    12.5177  12.5177  12.5780  12.6459  12.7648  12.7786  12.8052  12.8052
    12.9282  12.9676  12.9676  12.9864  13.0010  13.0080  13.0597  13.0597
    13.0959  13.1602  13.1826  13.1826  13.2678  13.2781  13.3444  13.3507
    13.4604  13.4902  13.5014  13.5014  13.5308  13.5308  13.6031  13.6215
    13.6552  13.6722  13.6888  13.6888  13.7368  13.7368  13.7406  13.7835
    13.8085  13.8085  13.8293  13.9046  13.9062  13.9062  13.9304  13.9327
    13.9327  13.9882  14.0106  14.1247  14.1465  14.1516  14.1621  14.1621
    14.1796  14.1850  14.1850  14.2303  14.2306  14.2564  14.2564  14.2666
    14.2687  14.2693  14.2693  14.3140  14.3237  14.3312  14.3312  14.3632
    14.3943  14.4146  14.4351  14.4610  14.4610  14.5012  14.5033  14.5033
    14.5358  14.5358  14.5720  14.5741  14.6016  14.6016  14.6257  14.6343
    14.6480  14.6480  14.6769  14.7035  14.7254  14.7671  14.7903  14.8168
    14.8168  14.8430  14.8504  14.8504  14.8736  14.8930  14.8930  14.8932
    14.9494  14.9494  14.9663  15.0152  15.0212  15.0489  15.0610  15.0610
    15.0993  15.1124  15.1124  15.1436  15.1835  15.1994  15.2088  15.2088
    15.2980  15.3141  15.3141  15.3355  15.4252  15.4252  15.4292  15.4415
    15.4764  15.5321  15.5321  15.5693  15.5693  15.5949  15.6360  15.6458
    15.6458  15.6803  15.7259  15.7304  15.7304  15.7596  15.8009  15.8897
    15.9089  15.9089  15.9292  15.9447  15.9758  15.9779  15.9779  15.9915
    16.0084  16.0109  16.0109  16.0966  16.1125  16.1125  16.1244  16.1549
    16.1549  16.1833  16.1885  16.2192  16.2210  16.2210  16.2502  16.2502
    16.2579  16.2624  16.2896  16.3110  16.3216  16.3232  16.3232  16.3464
    16.3464  16.3579  16.3842  16.3842  16.3934  16.3934  16.3969  16.4026
    16.4066  16.4123  16.4123  16.4240  16.4339  16.4434  16.4451  16.4451
    16.4533  16.4848  16.4897  16.4897  16.5021  16.5057  16.5057  16.5158
    16.5328  16.5549  16.5603  16.5603  16.5732  16.5805  16.5918  16.5918
    16.6295  16.6299  16.6369  16.6509  16.6509  16.6651  16.6818  16.7065
    16.7065  16.7223  16.7253  16.8104  16.8990  16.8990  16.9182  16.9463
    16.9646  17.0092  17.0092  17.0766  17.1169  17.1177  17.1177  17.1975
    17.3178  17.3207  17.3207  17.3818  17.3818  17.4013  17.4144  17.4922
    17.6000  17.6352  17.6464  17.6464  17.9136  17.9711  18.1017  18.1017
    18.3341  18.4901  18.4901  18.5851  18.7274  18.8964  18.8964  18.9100
    19.1344  19.1599  19.2807  19.2807  19.4775  19.6966  19.6966  19.7797
    19.8971  20.1191

          k = 0.0000 0.0000 0.4000 ( 37506 PWs)   bands (ev):

   -70.7358 -70.7343 -70.7330 -70.7330 -70.7168 -70.7131 -70.7067 -70.7065
   -70.7065 -70.7039 -70.7037 -70.7036 -70.7036 -70.7003 -70.7000 -70.7000
   -70.6907 -70.6896 -70.6884 -70.6860 -70.6860 -70.6850 -70.6544 -70.6533
   -70.6533 -70.6500 -70.5631 -70.5621 -70.5621 -70.5615 -70.5592 -70.5590
   -70.5589 -70.5589 -70.5585 -70.5585 -70.5579 -70.5576 -70.5574 -70.5574
   -70.5543 -70.5522 -70.4016 -70.4014 -70.4011 -70.4005 -70.4005 -70.4001
   -70.0694 -36.8993 -36.8983 -36.8932 -36.8932 -36.8920 -36.8774 -36.8744
   -36.8744 -36.8721 -36.8703 -36.8614 -36.8614 -36.8541 -36.8505 -36.8482
   -36.8387 -36.8381 -36.8381 -36.8348 -36.8319 -36.8319 -36.8302 -36.8182
   -36.8174 -36.8174 -36.8173 -36.8130 -36.8130 -36.8122 -36.8074 -36.8071
   -36.8071 -36.8065 -36.8002 -36.7990 -36.7990 -36.7958 -36.7949 -36.7934
   -36.7934 -36.7870 -36.7826 -36.7681 -36.7668 -36.7668 -36.7646 -36.7635
   -36.7596 -36.7479 -36.7479 -36.7432 -36.7414 -36.7414 -36.7359 -36.7336
   -36.7336 -36.7285 -36.7274 -36.7274 -36.7264 -36.7119 -36.7108 -36.7108
   -36.7074 -36.6947 -36.6947 -36.6912 -36.6900 -36.6812 -36.6812 -36.6812
   -36.6639 -36.6639 -36.6623 -36.6292 -36.6257 -36.6227 -36.6227 -36.6162
   -36.6152 -36.6071 -36.6047 -36.6047 -36.5957 -36.5957 -36.5921 -36.5914
   -36.5897 -36.5838 -36.5822 -36.5822 -36.5788 -36.5788 -36.5662 -36.5615
   -36.5615 -36.5593 -36.5593 -36.5589 -36.5555 -36.5475 -36.5475 -36.5446
   -36.5446 -36.5344 -36.5338 -36.5338 -36.5286 -36.5254 -36.5238 -36.5238
   -36.5210 -36.5204 -36.5187 -36.5187 -36.5156 -36.5121 -36.5121 -36.5065
   -36.5006 -36.5006 -36.4963 -36.4934 -36.4934 -36.4933 -36.4805 -36.4380
   -36.4346 -36.4335 -36.4335 -36.4305 -36.4301 -36.4243 -36.4243 -36.4234
   -36.4230 -36.4219 -36.4219 -36.4174 -36.4139 -36.4139 -36.4075 -36.4075
   -36.4059 -36.1268 -36.1268 -36.1268   7.3456   7.7221   8.3521   8.3521
     8.4227  10.4662  10.6937  10.9362  11.0309  11.0309  11.3923  11.5138
    11.7009  11.7853  11.7853  11.9615  12.1708  12.1708  12.3441  12.4300
    12.4300  12.5829  12.6885  12.7071  12.7137  12.7137  12.7316  12.8439
    12.8650  12.9132  12.9597  12.9847  12.9847  13.0196  13.0435  13.0795
    13.0795  13.1638  13.1687  13.2200  13.2200  13.2254  13.2297  13.3451
    13.4052  13.4052  13.4640  13.5220  13.5220  13.5225  13.5651  13.6304
    13.6367  13.6367  13.6693  13.6811  13.7169  13.7273  13.7273  13.7542
    13.8163  13.8234  13.8234  13.8540  13.8540  13.9083  13.9518  14.0785
    14.0811  14.0811  14.1066  14.1339  14.1605  14.1680  14.1827  14.1827
    14.2044  14.2044  14.2083  14.2190  14.2588  14.2676  14.2676  14.2728
    14.2972  14.2972  14.3081  14.3111  14.3253  14.3253  14.3743  14.4060
    14.4201  14.4414  14.4414  14.4439  14.4530  14.5195  14.5195  14.5273
    14.5371  14.5570  14.5570  14.5671  14.5983  14.5985  14.5985  14.6170
    14.6256  14.6256  14.6431  14.6525  14.7084  14.7125  14.7549  14.7549
    14.7669  14.8036  14.8106  14.8106  14.8355  14.8584  14.8891  14.8891
    14.8929  14.9503  14.9503  14.9706  15.0078  15.0086  15.0086  15.0639
    15.0848  15.1229  15.1787  15.1787  15.2153  15.2322  15.2322  15.2744
    15.2964  15.3658  15.3658  15.3874  15.4230  15.4593  15.4718  15.4718
    15.5036  15.5272  15.5272  15.5631  15.5639  15.5639  15.6087  15.6395
    15.6395  15.7492  15.7625  15.8255  15.8335  15.8335  15.8740  15.8775
    15.9171  15.9264  15.9264  15.9564  15.9564  16.0029  16.0405  16.0431
    16.0431  16.0484  16.0723  16.0749  16.0749  16.0837  16.1384  16.1384
    16.1571  16.1576  16.1737  16.1879  16.2089  16.2089  16.2341  16.2341
    16.2351  16.2563  16.2579  16.2754  16.3066  16.3066  16.3268  16.3318
    16.3370  16.3466  16.3466  16.3501  16.3688  16.3688  16.3882  16.3882
    16.3907  16.3909  16.4022  16.4022  16.4162  16.4168  16.4334  16.4394
    16.4394  16.4704  16.4710  16.4800  16.4800  16.5178  16.5312  16.5312
    16.5504  16.5515  16.5571  16.5571  16.5695  16.5783  16.6168  16.6731
    16.7074  16.7074  16.7315  16.7383  16.7505  16.7505  16.8057  16.8571
    16.8602  16.8602  16.9231  16.9700  17.0043  17.0043  17.0324  17.0485
    17.0667  17.0667  17.0935  17.1641  17.2601  17.2666  17.2666  17.3129
    17.3129  17.3404  17.3652  17.3890  17.3928  17.4264  17.4296  17.4296
    17.4881  17.4903  17.5201  17.5201  17.5322  17.5714  17.6264  17.6264
    17.8479  17.8479  17.8845  17.9668  18.2151  18.9162  19.1268  19.1268
    19.2806  19.4664  19.4932  19.4932  19.6813  19.9378  19.9378  20.0024
    20.0531  20.2879

          k = 0.0000 0.2000 0.2000 ( 37473 PWs)   bands (ev):

   -70.7365 -70.7333 -70.7333 -70.7330 -70.7175 -70.7105 -70.7093 -70.7067
   -70.7060 -70.7044 -70.7037 -70.7031 -70.7024 -70.7010 -70.7002 -70.6995
   -70.6911 -70.6889 -70.6887 -70.6862 -70.6860 -70.6851 -70.6538 -70.6537
   -70.6533 -70.6500 -70.5625 -70.5625 -70.5621 -70.5615 -70.5595 -70.5590
   -70.5589 -70.5588 -70.5585 -70.5583 -70.5580 -70.5577 -70.5574 -70.5565
   -70.5559 -70.5515 -70.4016 -70.4015 -70.4009 -70.4006 -70.4005 -70.4001
   -70.0694 -36.8994 -36.8987 -36.8955 -36.8929 -36.8874 -36.8842 -36.8783
   -36.8777 -36.8767 -36.8715 -36.8578 -36.8574 -36.8526 -36.8490 -36.8437
   -36.8398 -36.8392 -36.8377 -36.8322 -36.8311 -36.8276 -36.8268 -36.8201
   -36.8198 -36.8167 -36.8166 -36.8135 -36.8118 -36.8086 -36.8077 -36.8063
   -36.8026 -36.8005 -36.8002 -36.7962 -36.7959 -36.7933 -36.7918 -36.7884
   -36.7857 -36.7827 -36.7793 -36.7746 -36.7730 -36.7726 -36.7673 -36.7672
   -36.7638 -36.7572 -36.7525 -36.7500 -36.7472 -36.7429 -36.7399 -36.7375
   -36.7356 -36.7340 -36.7302 -36.7296 -36.7279 -36.7121 -36.7089 -36.7065
   -36.7057 -36.6943 -36.6930 -36.6881 -36.6876 -36.6838 -36.6825 -36.6796
   -36.6642 -36.6635 -36.6610 -36.6254 -36.6252 -36.6208 -36.6207 -36.6151
   -36.6103 -36.6066 -36.6052 -36.6042 -36.5953 -36.5949 -36.5919 -36.5914
   -36.5890 -36.5808 -36.5806 -36.5776 -36.5731 -36.5672 -36.5640 -36.5622
   -36.5603 -36.5565 -36.5547 -36.5534 -36.5514 -36.5502 -36.5487 -36.5479
   -36.5471 -36.5444 -36.5438 -36.5424 -36.5334 -36.5262 -36.5248 -36.5238
   -36.5219 -36.5210 -36.5199 -36.5170 -36.5165 -36.5154 -36.5133 -36.5082
   -36.5038 -36.4984 -36.4957 -36.4950 -36.4939 -36.4934 -36.4735 -36.4390
   -36.4339 -36.4336 -36.4334 -36.4301 -36.4300 -36.4242 -36.4237 -36.4236
   -36.4226 -36.4222 -36.4219 -36.4158 -36.4147 -36.4143 -36.4066 -36.4066
   -36.4058 -36.1268 -36.1268 -36.1268   7.2596   7.8921   8.2699   8.3358
     8.4328  10.5832  10.6172  10.7384  11.0878  11.2486  11.4056  11.5512
    11.5522  11.7810  11.8795  11.9579  11.9588  12.1824  12.3191  12.5083
    12.5273  12.5366  12.5539  12.6617  12.7535  12.7877  12.7985  12.8161
    12.9015  12.9327  12.9412  12.9788  13.0113  13.0142  13.0569  13.0882
    13.0974  13.1402  13.1555  13.2395  13.2451  13.3078  13.3266  13.3501
    13.3775  13.4348  13.4371  13.4722  13.5200  13.5488  13.5677  13.5916
    13.6250  13.6426  13.6736  13.6884  13.7107  13.7390  13.7782  13.7888
    13.8179  13.8253  13.8406  13.8752  13.9008  13.9388  13.9627  13.9969
    14.0015  14.0518  14.0724  14.0941  14.0989  14.1038  14.1341  14.1562
    14.1731  14.1873  14.2002  14.2102  14.2364  14.2428  14.2443  14.2653
    14.2669  14.2880  14.3074  14.3074  14.3309  14.3448  14.3740  14.3871
    14.4048  14.4296  14.4303  14.4452  14.4577  14.4842  14.5026  14.5059
    14.5459  14.5468  14.5770  14.5811  14.5817  14.5892  14.6092  14.6453
    14.6537  14.6629  14.6836  14.7088  14.7125  14.7355  14.7646  14.8062
    14.8313  14.8493  14.8550  14.8729  14.8933  14.9033  14.9071  14.9399
    14.9421  14.9598  14.9685  14.9762  14.9980  15.0081  15.0237  15.0286
    15.0307  15.0737  15.1106  15.1420  15.1560  15.1605  15.2642  15.2656
    15.2977  15.3013  15.3203  15.3628  15.4134  15.4154  15.4434  15.4441
    15.5001  15.5036  15.5144  15.5701  15.5998  15.6160  15.6378  15.6470
    15.7087  15.7434  15.7568  15.7816  15.8022  15.8245  15.8419  15.8733
    15.8839  15.9102  15.9289  15.9410  15.9659  15.9741  16.0008  16.0188
    16.0283  16.0638  16.0855  16.1002  16.1152  16.1562  16.1565  16.1605
    16.1650  16.1789  16.2060  16.2148  16.2212  16.2301  16.2367  16.2407
    16.2562  16.2602  16.2789  16.2935  16.3081  16.3211  16.3266  16.3389
    16.3419  16.3533  16.3672  16.3769  16.3789  16.3842  16.3914  16.4031
    16.4052  16.4096  16.4114  16.4230  16.4322  16.4331  16.4547  16.4580
    16.4695  16.4709  16.4857  16.4954  16.5003  16.5036  16.5105  16.5418
    16.5536  16.5564  16.5708  16.5881  16.5923  16.6077  16.6298  16.6301
    16.6355  16.6498  16.6592  16.6799  16.6911  16.6932  16.7109  16.7156
    16.7323  16.7413  16.7668  16.8040  16.8047  16.9081  16.9093  16.9453
    16.9597  16.9846  17.0414  17.1160  17.1441  17.1452  17.2198  17.2402
    17.3107  17.3248  17.3367  17.3449  17.4019  17.4256  17.4340  17.4424
    17.5129  17.5330  17.5575  17.6251  17.7568  17.7916  17.9861  18.1315
    18.1539  18.3127  18.4681  18.5767  18.6051  18.7332  18.7607  18.8378
    19.0343  19.0351  19.2212  19.2377  19.3944  19.6407  19.8463  19.9537
    20.0697  20.1009

          k = 0.0000 0.2000 0.4000 ( 37492 PWs)   bands (ev):

   -70.7355 -70.7342 -70.7333 -70.7331 -70.7163 -70.7128 -70.7088 -70.7073
   -70.7058 -70.7041 -70.7037 -70.7034 -70.7022 -70.7015 -70.7002 -70.6992
   -70.6905 -70.6894 -70.6886 -70.6862 -70.6859 -70.6844 -70.6544 -70.6537
   -70.6533 -70.6497 -70.5630 -70.5624 -70.5621 -70.5615 -70.5599 -70.5591
   -70.5590 -70.5587 -70.5586 -70.5581 -70.5581 -70.5576 -70.5572 -70.5564
   -70.5544 -70.5525 -70.4016 -70.4014 -70.4011 -70.4006 -70.4005 -70.4000
   -70.0694 -36.9009 -36.9001 -36.8962 -36.8924 -36.8878 -36.8804 -36.8758
   -36.8721 -36.8709 -36.8687 -36.8605 -36.8601 -36.8541 -36.8502 -36.8463
   -36.8421 -36.8401 -36.8384 -36.8365 -36.8320 -36.8304 -36.8258 -36.8220
   -36.8204 -36.8176 -36.8158 -36.8139 -36.8119 -36.8111 -36.8104 -36.8079
   -36.8070 -36.8053 -36.8026 -36.8008 -36.7990 -36.7971 -36.7945 -36.7927
   -36.7906 -36.7827 -36.7751 -36.7722 -36.7695 -36.7662 -36.7648 -36.7612
   -36.7584 -36.7489 -36.7459 -36.7444 -36.7386 -36.7372 -36.7366 -36.7329
   -36.7326 -36.7312 -36.7278 -36.7269 -36.7235 -36.7155 -36.7136 -36.7107
   -36.7058 -36.7007 -36.6991 -36.6914 -36.6879 -36.6861 -36.6797 -36.6785
   -36.6664 -36.6657 -36.6615 -36.6256 -36.6238 -36.6234 -36.6215 -36.6174
   -36.6126 -36.6085 -36.6057 -36.6054 -36.5971 -36.5958 -36.5917 -36.5913
   -36.5892 -36.5820 -36.5796 -36.5783 -36.5774 -36.5738 -36.5673 -36.5622
   -36.5610 -36.5601 -36.5581 -36.5567 -36.5532 -36.5494 -36.5479 -36.5442
   -36.5431 -36.5391 -36.5381 -36.5361 -36.5313 -36.5282 -36.5265 -36.5235
   -36.5218 -36.5208 -36.5196 -36.5164 -36.5153 -36.5117 -36.5110 -36.5040
   -36.5018 -36.4967 -36.4967 -36.4959 -36.4939 -36.4922 -36.4810 -36.4374
   -36.4345 -36.4338 -36.4335 -36.4306 -36.4296 -36.4246 -36.4242 -36.4238
   -36.4226 -36.4219 -36.4217 -36.4163 -36.4139 -36.4136 -36.4076 -36.4075
   -36.4062 -36.1268 -36.1268 -36.1268   7.3871   7.7479   8.2683   8.3122
     8.4620  10.4806  10.6349  10.8018  10.9487  11.2129  11.4231  11.4989
    11.6766  11.7554  11.9303  11.9589  12.1406  12.1959  12.3611  12.4421
    12.4732  12.6581  12.6830  12.7054  12.7300  12.7584  12.7662  12.8584
    12.8736  12.8949  12.9338  12.9479  12.9978  13.0227  13.0501  13.0608
    13.0969  13.1208  13.1749  13.1892  13.2095  13.2280  13.2428  13.3362
    13.3767  13.4040  13.4237  13.4323  13.4789  13.4910  13.5097  13.5519
    13.6062  13.6234  13.6448  13.6876  13.7218  13.7263  13.7656  13.7849
    13.8189  13.8291  13.8634  13.8819  13.8922  13.9357  13.9944  14.0164
    14.0379  14.0773  14.0842  14.1154  14.1275  14.1389  14.1457  14.1764
    14.1912  14.2043  14.2174  14.2191  14.2332  14.2429  14.2654  14.2785
    14.2914  14.2951  14.3321  14.3430  14.3521  14.3753  14.3981  14.4138
    14.4237  14.4307  14.4498  14.4527  14.4657  14.4866  14.5043  14.5338
    14.5393  14.5520  14.5616  14.5715  14.5936  14.6070  14.6271  14.6321
    14.6531  14.6716  14.7034  14.7106  14.7282  14.7371  14.7674  14.7793
    14.7870  14.8128  14.8205  14.8305  14.8399  14.8558  14.8876  14.8893
    14.9085  14.9193  14.9281  14.9390  14.9753  14.9857  14.9964  15.0516
    15.0590  15.0746  15.1227  15.1398  15.1573  15.2136  15.2273  15.2368
    15.2462  15.2969  15.3227  15.3717  15.4246  15.4508  15.4673  15.4765
    15.5153  15.5375  15.5520  15.6028  15.6135  15.6336  15.6653  15.6948
    15.7106  15.7292  15.7880  15.7989  15.8535  15.8677  15.8821  15.9073
    15.9227  15.9334  15.9439  15.9796  15.9955  16.0235  16.0343  16.0561
    16.0577  16.0958  16.1038  16.1252  16.1366  16.1481  16.1575  16.1667
    16.1741  16.1821  16.1961  16.2054  16.2117  16.2281  16.2366  16.2471
    16.2637  16.2755  16.2826  16.2869  16.3047  16.3123  16.3144  16.3284
    16.3387  16.3525  16.3551  16.3691  16.3759  16.3777  16.3849  16.3930
    16.4000  16.4015  16.4117  16.4188  16.4290  16.4342  16.4572  16.4617
    16.4691  16.4799  16.4868  16.4915  16.5126  16.5319  16.5486  16.5562
    16.5651  16.5712  16.5805  16.5956  16.6155  16.6217  16.6527  16.6694
    16.6756  16.6927  16.7043  16.7165  16.7266  16.7364  16.7731  16.7972
    16.8232  16.8259  16.9060  16.9170  16.9402  16.9657  16.9852  17.0244
    17.0352  17.0424  17.0770  17.0860  17.1289  17.1634  17.1869  17.2171
    17.2414  17.2446  17.3174  17.3243  17.3621  17.3787  17.4192  17.4425
    17.4818  17.5156  17.5469  17.5681  17.6038  17.6115  17.6963  17.7950
    17.8185  17.9922  18.1796  18.2325  18.2888  18.4164  18.6064  18.9691
    19.0082  19.2641  19.4629  19.4861  19.6465  19.7063  19.7874  19.9405
    20.0190  20.0849

          k = 0.0000 0.4000 0.4000 ( 37376 PWs)   bands (ev):

   -70.7348 -70.7339 -70.7338 -70.7333 -70.7148 -70.7124 -70.7113 -70.7086
   -70.7050 -70.7041 -70.7033 -70.7031 -70.7029 -70.7013 -70.7004 -70.6987
   -70.6899 -70.6892 -70.6890 -70.6862 -70.6858 -70.6836 -70.6544 -70.6544
   -70.6533 -70.6492 -70.5628 -70.5628 -70.5621 -70.5614 -70.5605 -70.5591
   -70.5591 -70.5587 -70.5586 -70.5582 -70.5579 -70.5575 -70.5566 -70.5552
   -70.5545 -70.5533 -70.4014 -70.4013 -70.4012 -70.4008 -70.4005 -70.3999
   -70.0694 -36.9032 -36.9025 -36.8968 -36.8906 -36.8849 -36.8832 -36.8801
   -36.8669 -36.8661 -36.8634 -36.8606 -36.8588 -36.8557 -36.8540 -36.8512
   -36.8433 -36.8381 -36.8354 -36.8342 -36.8321 -36.8308 -36.8269 -36.8227
   -36.8223 -36.8189 -36.8176 -36.8168 -36.8134 -36.8122 -36.8110 -36.8065
   -36.8047 -36.8038 -36.8027 -36.8019 -36.7973 -36.7950 -36.7943 -36.7927
   -36.7917 -36.7777 -36.7761 -36.7742 -36.7708 -36.7619 -36.7598 -36.7594
   -36.7561 -36.7511 -36.7447 -36.7384 -36.7374 -36.7364 -36.7332 -36.7331
   -36.7305 -36.7287 -36.7267 -36.7253 -36.7249 -36.7213 -36.7175 -36.7165
   -36.7093 -36.7071 -36.7011 -36.6919 -36.6911 -36.6888 -36.6752 -36.6748
   -36.6691 -36.6685 -36.6605 -36.6246 -36.6245 -36.6213 -36.6185 -36.6176
   -36.6101 -36.6094 -36.6079 -36.6074 -36.5988 -36.5951 -36.5911 -36.5907
   -36.5876 -36.5774 -36.5744 -36.5726 -36.5724 -36.5671 -36.5658 -36.5649
   -36.5622 -36.5591 -36.5551 -36.5527 -36.5516 -36.5502 -36.5477 -36.5469
   -36.5462 -36.5441 -36.5422 -36.5398 -36.5366 -36.5353 -36.5325 -36.5257
   -36.5212 -36.5178 -36.5164 -36.5161 -36.5140 -36.5113 -36.5098 -36.5055
   -36.5009 -36.4992 -36.4979 -36.4939 -36.4928 -36.4880 -36.4834 -36.4361
   -36.4343 -36.4342 -36.4333 -36.4310 -36.4283 -36.4249 -36.4241 -36.4241
   -36.4221 -36.4218 -36.4215 -36.4146 -36.4139 -36.4133 -36.4076 -36.4074
   -36.4067 -36.1268 -36.1268 -36.1267   7.4734   7.7840   8.1782   8.2210
     8.4932  10.5199  10.5350  10.7448  10.9932  11.1101  11.3204  11.4262
    11.8274  11.8376  12.0753  12.1176  12.1211  12.2611  12.2964  12.4804
    12.5232  12.6542  12.6627  12.7139  12.7407  12.7945  12.8309  12.8469
    12.9041  12.9087  12.9442  12.9813  13.0120  13.0598  13.0848  13.0901
    13.0958  13.1307  13.1324  13.1771  13.1885  13.2137  13.2224  13.2478
    13.2523  13.2645  13.3261  13.3734  13.3736  13.4130  13.4279  13.5161
    13.5485  13.5966  13.6514  13.6734  13.7640  13.7799  13.8298  13.8433
    13.8438  13.8726  13.8777  13.9215  13.9221  13.9511  13.9557  13.9877
    13.9923  14.0206  14.0224  14.0590  14.1152  14.1327  14.1422  14.1424
    14.1531  14.1866  14.1911  14.2064  14.2265  14.2266  14.2892  14.2977
    14.3129  14.3302  14.3461  14.3601  14.3692  14.4014  14.4026  14.4283
    14.4373  14.4419  14.4555  14.4940  14.4985  14.5079  14.5368  14.5582
    14.5654  14.5751  14.5825  14.6021  14.6487  14.6625  14.6736  14.6844
    14.6894  14.6965  14.7180  14.7215  14.7427  14.7689  14.7698  14.7767
    14.7957  14.7983  14.8132  14.8317  14.8374  14.8494  14.8643  14.8912
    14.9091  14.9268  14.9391  14.9582  14.9629  14.9807  15.0067  15.0160
    15.0380  15.0450  15.0475  15.0991  15.1047  15.1294  15.1296  15.1335
    15.1752  15.2295  15.3298  15.3521  15.3654  15.4189  15.4298  15.4946
    15.5003  15.5234  15.5505  15.5742  15.6752  15.6864  15.6917  15.7410
    15.7821  15.7851  15.8275  15.8492  15.8608  15.9102  15.9286  15.9556
    15.9745  15.9915  15.9993  16.0430  16.0471  16.0505  16.0802  16.0939
    16.1108  16.1113  16.1289  16.1441  16.1447  16.1669  16.1721  16.1794
    16.1867  16.2042  16.2168  16.2532  16.2540  16.2770  16.2794  16.2901
    16.3022  16.3055  16.3089  16.3177  16.3180  16.3217  16.3442  16.3467
    16.3629  16.3645  16.3679  16.3780  16.3830  16.4024  16.4148  16.4218
    16.4286  16.4330  16.4481  16.4633  16.4641  16.4717  16.4859  16.4947
    16.4959  16.4995  16.5302  16.5357  16.5423  16.5654  16.5751  16.5832
    16.5856  16.5992  16.6167  16.6324  16.6431  16.6544  16.6615  16.6819
    16.7003  16.7030  16.7282  16.7482  16.7569  16.7676  16.7754  16.7926
    16.8247  16.8370  16.8524  16.8609  16.8968  16.9127  16.9214  16.9543
    16.9602  16.9776  16.9817  17.0173  17.0248  17.0555  17.0688  17.0774
    17.0828  17.1224  17.1540  17.1743  17.2081  17.2507  17.3147  17.3871
    17.4367  17.5248  17.5675  17.5871  17.5971  17.6622  17.8159  17.9173
    17.9745  18.1971  18.2696  18.3901  18.4066  18.4921  18.6700  18.7151
    18.8714  18.9025  18.9975  19.0325  19.2286  19.5888  19.5940  19.6735
    19.7329  20.1774

          k = 0.2000 0.2000 0.2000 ( 37422 PWs)   bands (ev):

   -70.7361 -70.7333 -70.7333 -70.7333 -70.7170 -70.7101 -70.7101 -70.7079
   -70.7053 -70.7053 -70.7030 -70.7030 -70.7020 -70.7019 -70.6996 -70.6996
   -70.6908 -70.6888 -70.6888 -70.6868 -70.6850 -70.6850 -70.6539 -70.6537
   -70.6537 -70.6497 -70.5625 -70.5625 -70.5624 -70.5614 -70.5595 -70.5595
   -70.5595 -70.5583 -70.5583 -70.5581 -70.5579 -70.5579 -70.5569 -70.5559
   -70.5559 -70.5518 -70.4015 -70.4015 -70.4009 -70.4006 -70.4006 -70.4000
   -70.0694 -36.8991 -36.8991 -36.8991 -36.8909 -36.8852 -36.8852 -36.8784
   -36.8735 -36.8735 -36.8733 -36.8588 -36.8588 -36.8494 -36.8468 -36.8447
   -36.8447 -36.8388 -36.8388 -36.8324 -36.8300 -36.8300 -36.8269 -36.8222
   -36.8222 -36.8177 -36.8177 -36.8155 -36.8097 -36.8087 -36.8074 -36.8074
   -36.8054 -36.8017 -36.8017 -36.7988 -36.7988 -36.7915 -36.7889 -36.7889
   -36.7840 -36.7824 -36.7824 -36.7777 -36.7697 -36.7697 -36.7674 -36.7620
   -36.7620 -36.7556 -36.7556 -36.7426 -36.7421 -36.7386 -36.7386 -36.7348
   -36.7348 -36.7323 -36.7284 -36.7284 -36.7284 -36.7159 -36.7081 -36.7081
   -36.7063 -36.6959 -36.6959 -36.6889 -36.6863 -36.6845 -36.6845 -36.6794
   -36.6655 -36.6655 -36.6613 -36.6241 -36.6241 -36.6214 -36.6214 -36.6156
   -36.6099 -36.6065 -36.6062 -36.6062 -36.5959 -36.5959 -36.5912 -36.5912
   -36.5889 -36.5808 -36.5808 -36.5753 -36.5721 -36.5721 -36.5638 -36.5638
   -36.5623 -36.5556 -36.5553 -36.5553 -36.5534 -36.5493 -36.5479 -36.5479
   -36.5451 -36.5433 -36.5433 -36.5367 -36.5367 -36.5290 -36.5240 -36.5240
[...]
   -33.8815 -33.8788 -33.8786 -33.8765 -33.8742 -33.8734 -33.8725 -33.8699
   -33.8618 -33.8572 -33.8561 -33.8518 -33.8507 -33.8505 -33.8470 -33.8447
   -33.8420 -33.8404 -33.8383 -33.8373 -33.8352 -33.8339 -33.8322 -33.8312
   -33.8275 -33.8217 -33.8212 -33.8202   7.4202   7.7914   8.2430   8.2981
     8.4232  10.6451  10.7534  10.8003  11.4170  11.4431  11.5386  11.8457
    12.1659  12.2487  12.2700  12.3266  12.6633  12.7500  13.0149  13.0700
    13.1053  13.3188  13.4990  13.5233  13.5984  13.6749  13.6975  13.8171
    13.8467  13.9107  13.9893  14.0433  14.1092  14.1606  14.1752  14.2601
    14.2716  14.3457  14.5186  14.5188  14.5834  14.6195  14.6516  14.7430
    14.7852  14.7884  14.8317  14.8590  14.8800  14.8842  14.9295  14.9429
    15.0190  15.0828  15.1320  15.1576  15.1800  15.2101  15.2502  15.2775
    15.3238  15.3585  15.3649  15.4226  15.4898  15.4986  15.5368  15.5718
    15.5852  15.6402  15.6640  15.7211  15.7364  15.7492  15.7690  15.7959
    15.8085  15.8348  15.8394  15.9003  15.9023  15.9185  15.9198  15.9304
    15.9524  15.9693  15.9725  15.9910  15.9959  16.0128  16.0347  16.0460
    16.0624  16.0722  16.0891  16.1099  16.1297  16.1424  16.1608  16.1688
    16.1853  16.2174  16.2289  16.2446  16.2835  16.2839  16.2961  16.3104
    16.3242  16.3459  16.3549  16.3665  16.3672  16.3926  16.4111  16.4335
    16.4340  16.4634  16.4649  16.4924  16.5211  16.5292  16.5624  16.5758
    16.5975  16.6223  16.6297  16.6565  16.6730  16.6914  16.7019  16.7281
    16.7378  16.7571  16.8040  16.8406  16.8712  16.8746  16.9163  16.9311
    16.9552  16.9973  17.0247  17.0639  17.0691  17.1014  17.2248  17.3048
    17.3083  17.3480  17.3646  17.3970  17.4440  17.5567  17.5832  17.6377
    17.6533  17.6810  17.7242  17.7328  17.7668  17.8004  17.9051  18.0391
    18.1247  18.1582  18.1717  18.2041  18.2412  18.2933  18.3020  18.4006
    18.4061  18.4148  18.4357  18.4544  18.4915  18.5205  18.5252  18.5453
    18.5616  18.5724  18.6086  18.6221  18.6378  18.6422  18.6626  18.6837
    18.7133  18.7174  18.7406  18.7625  18.7754  18.7782  18.7921  18.8155
    18.8303  18.8444  18.8468  18.8668  18.8735  18.9071  18.9167  18.9269
    18.9414  18.9461  18.9629  18.9803  18.9988  19.0038  19.0449  19.0500
    19.0716  19.0771  19.0866  19.0920  19.1072  19.1221  19.1333  19.1524
    19.1543  19.1629  19.1659  19.1924  19.1937  19.2173  19.2255  19.2314
    19.2325  19.2422  19.2451  19.2589  19.2633  19.2659  19.2717  19.2758
    19.2900  19.2923  19.3099  19.3120  19.3277  19.3554  19.3568  19.3698
    19.3768  19.3866  19.3967  19.4237  19.4331  19.4348  19.4540  19.4718
    19.4805  19.5095  19.5125  19.5207  19.5377  19.5530  19.5851  19.6123
    19.6495  19.6921  19.7046  19.7101  19.7687  19.7904  19.8792  19.8935
    19.9808  20.0367  20.0462  20.1515  20.1617  20.2396  20.3691  20.4091
    20.5109  20.5622  20.7487  20.8458  20.9542  21.0699  21.0948  21.3204
    21.3671  21.4212

          k = 0.2000 0.4000 0.4000 ( 37499 PWs)   bands (ev):

   -68.1839 -68.0461 -68.0447 -68.0444 -68.0403 -68.0376 -68.0370 -68.0313
   -68.0292 -68.0292 -68.0290 -67.9812 -67.9804 -67.9796 -67.9735 -67.9689
   -67.9686 -67.9662 -67.9638 -67.9637 -67.9628 -67.9609 -67.9601 -67.9586
   -67.9579 -67.9576 -67.9576 -67.9386 -67.9385 -67.9377 -67.9343 -67.8500
   -67.8494 -67.8493 -67.8474 -67.8472 -67.8459 -67.8458 -67.8451 -67.8444
   -67.8437 -67.8428 -67.8419 -67.8167 -67.8163 -67.8145 -67.8139 -67.8138
   -67.8114 -34.3420 -34.3420 -34.3404 -34.2790 -34.2785 -34.2737 -34.2628
   -34.2619 -34.2563 -34.2553 -34.2509 -34.2477 -34.2471 -34.2421 -34.2396
   -34.2375 -34.2308 -34.2294 -34.2260 -34.2236 -34.2218 -34.2176 -34.2129
   -34.2111 -34.2044 -34.2033 -34.2005 -34.1972 -34.1964 -34.1931 -34.1922
   -34.1915 -34.1889 -34.1872 -34.1846 -34.1830 -34.1767 -34.1737 -34.1719
   -34.1695 -34.1671 -34.1642 -34.1632 -34.1617 -34.1604 -34.1575 -34.1504
   -34.1470 -34.1457 -34.1446 -34.1394 -34.1352 -34.1306 -34.1300 -34.1251
   -34.1238 -34.1187 -34.1177 -34.1147 -34.1088 -34.0986 -34.0969 -34.0952
   -34.0947 -34.0904 -34.0867 -34.0862 -34.0813 -34.0777 -34.0745 -34.0722
   -34.0700 -34.0692 -34.0654 -34.0621 -34.0587 -34.0501 -34.0486 -34.0433
   -34.0339 -34.0329 -34.0112 -34.0005 -34.0000 -33.9954 -33.9899 -33.9898
   -33.9846 -33.9843 -33.9829 -33.9812 -33.9805 -33.9760 -33.9716 -33.9601
   -33.9579 -33.9472 -33.9432 -33.9431 -33.9396 -33.9357 -33.9312 -33.9274
   -33.9242 -33.9232 -33.9213 -33.9177 -33.9145 -33.9089 -33.9072 -33.9039
   -33.9023 -33.8997 -33.8978 -33.8935 -33.8920 -33.8914 -33.8869 -33.8849
   -33.8808 -33.8800 -33.8777 -33.8775 -33.8745 -33.8728 -33.8719 -33.8656
   -33.8604 -33.8576 -33.8542 -33.8501 -33.8496 -33.8480 -33.8473 -33.8452
   -33.8424 -33.8418 -33.8368 -33.8364 -33.8360 -33.8335 -33.8313 -33.8306
   -33.8287 -33.8223 -33.8216 -33.8210   7.4880   7.8352   8.1971   8.2279
     8.4107  10.6037  10.6130  10.6993  11.3633  11.5184  11.6156  11.7592
    12.3010  12.3164  12.4916  12.6402  12.6413  12.8240  12.8887  13.1233
    13.1778  13.2790  13.4341  13.5639  13.5676  13.6139  13.7671  13.8659
    13.8874  13.9235  13.9688  14.0113  14.0343  14.0944  14.1842  14.2109
    14.2599  14.3123  14.3674  14.4338  14.4525  14.4892  14.5717  14.6591
    14.6731  14.8013  14.8276  14.8440  14.8996  14.9010  14.9190  14.9901
    14.9978  15.0945  15.1204  15.1621  15.2073  15.2405  15.3003  15.3047
    15.3710  15.3727  15.3916  15.4078  15.4814  15.5192  15.5568  15.5606
    15.5919  15.6022  15.6985  15.6998  15.7454  15.7594  15.7836  15.7885
    15.8074  15.8184  15.8251  15.8432  15.8627  15.8952  15.8993  15.9224
    15.9248  15.9599  15.9730  15.9789  16.0049  16.0174  16.0242  16.0607
    16.0844  16.0920  16.1167  16.1544  16.1824  16.1877  16.2135  16.2151
    16.2403  16.2413  16.2749  16.2900  16.3006  16.3169  16.3558  16.3625
    16.3752  16.3784  16.3945  16.4111  16.4175  16.4281  16.4522  16.4619
    16.4623  16.4927  16.4947  16.5095  16.5417  16.5462  16.5544  16.5857
    16.5896  16.6069  16.6218  16.6402  16.6414  16.6449  16.6835  16.6952
    16.7311  16.7450  16.7644  16.7780  16.7822  16.8418  16.8487  16.8888
    16.9031  16.9718  16.9811  17.0535  17.0762  17.0831  17.1979  17.2807
    17.2944  17.3341  17.3491  17.4240  17.4415  17.5303  17.5684  17.5703
    17.6392  17.6400  17.7352  17.8175  17.8303  17.8400  18.0047  18.0838
    18.1023  18.1529  18.2246  18.2483  18.3042  18.3188  18.3381  18.3720
    18.3785  18.4164  18.4311  18.4713  18.4765  18.5064  18.5490  18.5652
    18.5883  18.6144  18.6434  18.6647  18.6718  18.6925  18.6948  18.7333
    18.7453  18.7499  18.7654  18.7924  18.7959  18.8194  18.8263  18.8383
    18.8411  18.8529  18.8578  18.8814  18.8885  18.9026  18.9157  18.9308
    18.9422  18.9538  18.9579  18.9725  18.9846  19.0109  19.0134  19.0382
    19.0540  19.0585  19.0673  19.0858  19.0937  19.1045  19.1241  19.1244
    19.1315  19.1456  19.1584  19.1682  19.1879  19.1886  19.1999  19.2000
    19.2179  19.2188  19.2301  19.2329  19.2481  19.2491  19.2542  19.2634
    19.2690  19.2719  19.2793  19.2823  19.3008  19.3024  19.3125  19.3187
    19.3278  19.3393  19.3542  19.3793  19.4016  19.4259  19.4290  19.4348
    19.4651  19.4787  19.5213  19.5383  19.5672  19.5709  19.5856  19.5871
    19.6717  19.7432  19.7711  19.7743  19.8190  19.8685  19.9059  19.9482
    20.0322  20.0431  20.1069  20.1357  20.2859  20.2943  20.3427  20.4170
    20.4405  20.5334  20.5483  20.6812  20.7750  20.8048  20.8841  20.9492
    21.1013  21.2029

          k = 0.4000 0.4000 0.4000 ( 37494 PWs)   bands (ev):

   -68.1839 -68.0454 -68.0446 -68.0446 -68.0413 -68.0370 -68.0370 -68.0311
   -68.0292 -68.0292 -68.0291 -67.9811 -67.9805 -67.9805 -67.9722 -67.9693
   -67.9693 -67.9679 -67.9628 -67.9628 -67.9628 -67.9600 -67.9600 -67.9588
   -67.9576 -67.9576 -67.9576 -67.9388 -67.9386 -67.9386 -67.9336 -67.8500
   -67.8500 -67.8498 -67.8475 -67.8475 -67.8451 -67.8446 -67.8446 -67.8444
   -67.8434 -67.8434 -67.8426 -67.8167 -67.8167 -67.8139 -67.8138 -67.8138
   -67.8116 -34.3419 -34.3419 -34.3418 -34.2749 -34.2749 -34.2736 -34.2656
   -34.2653 -34.2584 -34.2584 -34.2487 -34.2485 -34.2485 -34.2442 -34.2442
   -34.2405 -34.2359 -34.2326 -34.2326 -34.2211 -34.2163 -34.2163 -34.2061
   -34.2061 -34.2043 -34.1980 -34.1980 -34.1952 -34.1949 -34.1904 -34.1904
   -34.1867 -34.1867 -34.1828 -34.1802 -34.1802 -34.1722 -34.1722 -34.1721
   -34.1678 -34.1678 -34.1644 -34.1627 -34.1586 -34.1586 -34.1562 -34.1562
   -34.1529 -34.1527 -34.1527 -34.1506 -34.1425 -34.1425 -34.1351 -34.1319
   -34.1319 -34.1188 -34.1118 -34.1118 -34.1058 -34.0949 -34.0949 -34.0930
   -34.0915 -34.0915 -34.0827 -34.0782 -34.0782 -34.0755 -34.0665 -34.0665
   -34.0660 -34.0605 -34.0593 -34.0588 -34.0588 -34.0525 -34.0525 -34.0360
   -34.0360 -34.0331 -34.0127 -34.0127 -34.0078 -34.0012 -33.9868 -33.9868
   -33.9849 -33.9829 -33.9827 -33.9827 -33.9811 -33.9811 -33.9692 -33.9692
   -33.9676 -33.9565 -33.9388 -33.9388 -33.9364 -33.9364 -33.9349 -33.9346
   -33.9286 -33.9218 -33.9218 -33.9192 -33.9103 -33.9103 -33.9052 -33.9020
   -33.8980 -33.8980 -33.8963 -33.8938 -33.8938 -33.8890 -33.8825 -33.8825
   -33.8792 -33.8792 -33.8785 -33.8743 -33.8743 -33.8741 -33.8665 -33.8665
   -33.8592 -33.8564 -33.8564 -33.8486 -33.8486 -33.8468 -33.8468 -33.8467
   -33.8429 -33.8393 -33.8393 -33.8362 -33.8361 -33.8361 -33.8319 -33.8317
   -33.8317 -33.8224 -33.8224 -33.8219   7.5295   7.9140   8.2195   8.2195
     8.2832  10.4637  10.4637  10.5028  11.5021  11.6892  11.6892  11.8644
    12.4077  12.4077  12.5398  12.8021  12.8021  12.9611  12.9611  12.9690
    13.1385  13.3396  13.3769  13.3769  13.5152  13.6575  13.6575  13.9543
    13.9543  13.9716  13.9942  13.9956  13.9956  14.1055  14.1580  14.1580
    14.2421  14.2421  14.2648  14.2919  14.2919  14.4762  14.5371  14.5371
    14.6202  14.6557  14.6557  14.8639  14.8639  14.9032  14.9550  14.9864
    14.9864  15.1374  15.1374  15.2505  15.2528  15.2528  15.3069  15.3069
    15.3171  15.4332  15.4332  15.4667  15.4957  15.4957  15.5228  15.5608
    15.5608  15.7092  15.7175  15.7175  15.7409  15.7611  15.7611  15.7631
    15.7924  15.7924  15.7980  15.8082  15.8082  15.9237  15.9237  15.9342
    15.9365  15.9794  15.9794  15.9948  16.0256  16.0256  16.0583  16.0614
    16.0614  16.0971  16.1344  16.1344  16.1875  16.1989  16.1989  16.2414
    16.2414  16.2518  16.2917  16.2917  16.3306  16.3367  16.3864  16.3864
    16.4124  16.4124  16.4376  16.4529  16.4597  16.4597  16.4859  16.4859
    16.5083  16.5083  16.5095  16.5559  16.5698  16.5715  16.5715  16.5884
    16.5986  16.5986  16.6267  16.6267  16.6555  16.6556  16.6556  16.6895
    16.7088  16.7088  16.7208  16.7453  16.7453  16.8553  16.8597  16.8597
    16.9729  16.9895  16.9895  17.0044  17.0561  17.0561  17.2318  17.3233
    17.3233  17.4026  17.4441  17.4525  17.4525  17.5355  17.5355  17.5471
    17.5471  17.6041  17.6671  17.7137  17.7137  17.8064  18.1181  18.1668
    18.1756  18.1756  18.1801  18.2425  18.2425  18.3042  18.3042  18.3153
    18.3523  18.3957  18.3957  18.4439  18.4713  18.4713  18.4754  18.4960
    18.5538  18.5538  18.5721  18.5721  18.6644  18.6794  18.6820  18.6820
    18.6956  18.7053  18.7053  18.8766  18.8968  18.8968  18.9082  18.9206
    18.9206  18.9440  18.9471  18.9471  18.9644  18.9676  18.9676  18.9885
    18.9885  19.0181  19.0181  19.0194  19.0562  19.0562  19.0564  19.0671
    19.0671  19.0902  19.0932  19.1008  19.1008  19.1115  19.1115  19.1349
    19.1440  19.1440  19.1611  19.1636  19.1636  19.1849  19.1849  19.1902
    19.1954  19.1954  19.2312  19.2312  19.2346  19.2503  19.2505  19.2505
    19.2597  19.2650  19.2650  19.2693  19.2817  19.2817  19.2977  19.2977
    19.3017  19.3081  19.3081  19.3596  19.3596  19.3918  19.4415  19.4415
    19.4611  19.4852  19.5164  19.5385  19.5385  19.6846  19.6846  19.7768
    19.7768  19.7898  19.8018  19.8410  19.8444  19.8444  19.9387  19.9387
    20.0254  20.0846  20.0846  20.1563  20.1674  20.1674  20.2902  20.2902
    20.3060  20.3404  20.4779  20.4779  20.6154  20.6154  20.7150  20.7406
    21.0084  21.0084

     the Fermi energy is    17.4501 ev

!    total energy              =  -16191.56245848 Ry
     estimated scf accuracy    <          5.5E-09 Ry
     smearing contrib. (-TS)   =       0.00146988 Ry
     internal energy E=F+TS    =  -16191.56392837 Ry

     The total energy is F=E-TS. E is the sum of the following terms:
     one-electron contribution =   -5998.60965005 Ry
     hartree contribution      =    3510.24166004 Ry
     xc contribution           =   -1738.11792650 Ry
     ewald contribution        =   -8233.71343463 Ry
     one-center paw contrib.   =   -3731.36457723 Ry

     total magnetization       =   107.73 Bohr mag/cell
     absolute magnetization    =   115.09 Bohr mag/cell

     convergence has been achieved in  77 iterations

     negative rho (up, down):  0.000E+00 5.571E-03

     Forces acting on atoms (cartesian axes, Ry/au):

     atom    1 type  1   force =     0.00000000    0.00000000    0.00000000
     atom    2 type  1   force =     0.00000000    0.00000000    0.00074798
     atom    3 type  1   force =     0.00000000    0.00000000   -0.00074798
     atom    4 type  1   force =     0.00074798    0.00000000    0.00000000
     atom    5 type  1   force =    -0.00074798    0.00000000    0.00000000
     atom    6 type  1   force =     0.00000000    0.00074798    0.00000000
     atom    7 type  1   force =     0.00000000   -0.00074798    0.00000000
     atom    8 type  1   force =    -0.00302969   -0.00302969   -0.00479764
     atom    9 type  1   force =    -0.00401392   -0.00401392    0.00401392
     atom   10 type  1   force =    -0.00479764   -0.00302969   -0.00302969
     atom   11 type  1   force =     0.00401392   -0.00401392   -0.00401392
     atom   12 type  1   force =    -0.00302969   -0.00479764   -0.00302969
     atom   13 type  1   force =    -0.00401392    0.00401392   -0.00401392
     atom   14 type  1   force =    -0.00128908    0.00064636    0.00064636
     atom   15 type  1   force =    -0.00128908   -0.00064636   -0.00064636
     atom   16 type  1   force =     0.00128908   -0.00064636    0.00064636
     atom   17 type  1   force =     0.00128908    0.00064636   -0.00064636
     atom   18 type  1   force =     0.00064636   -0.00128908    0.00064636
     atom   19 type  1   force =    -0.00064636   -0.00128908   -0.00064636
     atom   20 type  1   force =     0.00064636    0.00128908   -0.00064636
     atom   21 type  1   force =    -0.00064636    0.00128908    0.00064636
     atom   22 type  1   force =     0.00064636    0.00064636   -0.00128908
     atom   23 type  1   force =    -0.00064636   -0.00064636   -0.00128908
     atom   24 type  1   force =    -0.00064636    0.00064636    0.00128908
     atom   25 type  1   force =     0.00064636   -0.00064636    0.00128908
     atom   26 type  1   force =     0.00305001    0.00000000    0.00000000
     atom   27 type  1   force =    -0.00302969    0.00302969    0.00479764
     atom   28 type  1   force =    -0.00302969    0.00479764    0.00302969
     atom   29 type  1   force =     0.00000000    0.00305001    0.00000000
     atom   30 type  1   force =     0.00479764   -0.00302969    0.00302969
     atom   31 type  1   force =     0.00302969   -0.00302969    0.00479764
     atom   32 type  1   force =     0.00000000    0.00000000    0.00305001
     atom   33 type  1   force =     0.00302969    0.00479764   -0.00302969
     atom   34 type  1   force =     0.00479764    0.00302969   -0.00302969
     atom   35 type  1   force =    -0.00079393   -0.00079393   -0.00079393
     atom   36 type  1   force =     0.00059422    0.00059422    0.00059422
     atom   37 type  1   force =     0.00079393    0.00079393   -0.00079393
     atom   38 type  1   force =    -0.00059422   -0.00059422    0.00059422
     atom   39 type  1   force =     0.00079393   -0.00079393    0.00079393
     atom   40 type  1   force =    -0.00059422    0.00059422   -0.00059422
     atom   41 type  1   force =    -0.00079393    0.00079393    0.00079393
     atom   42 type  1   force =     0.00059422   -0.00059422   -0.00059422
     atom   43 type  1   force =     0.00401392    0.00401392    0.00401392
     atom   44 type  1   force =     0.00302969    0.00302969   -0.00479764
     atom   45 type  1   force =     0.00000000    0.00000000   -0.00305001
     atom   46 type  1   force =     0.00302969   -0.00479764    0.00302969
     atom   47 type  1   force =     0.00000000   -0.00305001    0.00000000
     atom   48 type  1   force =    -0.00479764    0.00302969    0.00302969
     atom   49 type  1   force =    -0.00305001    0.00000000    0.00000000
     atom   50 type  2   force =    -0.00459635   -0.00459635   -0.00459635
     atom   51 type  2   force =    -0.00459635    0.00459635    0.00459635
     atom   52 type  2   force =     0.00459635   -0.00459635    0.00459635
     atom   53 type  2   force =     0.00459635    0.00459635   -0.00459635
     atom   54 type  2   force =     0.00000000    0.00000000    0.00000000

     Total force =     0.032316     Total SCF correction =     0.000345


     Computing stress (Cartesian axis) and pressure


     negative rho (up, down):  0.000E+00 5.571E-03
          total   stress  (Ry/bohr**3)                   (kbar)     P=      -60.81
  -0.00041338   0.00000000   0.00000000          -60.81        0.00        0.00
   0.00000000  -0.00041338   0.00000000            0.00      -60.81        0.00
   0.00000000   0.00000000  -0.00041338            0.00        0.00      -60.81


     Writing output data file ./cryst.save/

     init_run     :     28.81s CPU     94.81s WALL (       1 calls)
     electrons    :   4605.18s CPU  18398.53s WALL (       1 calls)
     forces       :      9.63s CPU     17.50s WALL (       1 calls)
     stress       :     77.32s CPU    158.57s WALL (       1 calls)

     Called by init_run:
     wfcinit      :     26.79s CPU     92.05s WALL (       1 calls)
     potinit      :      1.32s CPU      1.63s WALL (       1 calls)
     hinit0       :      0.33s CPU      0.49s WALL (       1 calls)

     Called by electrons:
     c_bands      :   3930.60s CPU  16708.86s WALL (      77 calls)
     sum_band     :    563.66s CPU   1540.12s WALL (      77 calls)
     v_of_rho     :      9.69s CPU     15.98s WALL (      78 calls)
     newd         :     14.49s CPU     23.09s WALL (      78 calls)
     PAW_pot      :     86.44s CPU     95.38s WALL (      78 calls)
     mix_rho      :      1.01s CPU      6.02s WALL (      77 calls)

     Called by c_bands:
     init_us_2    :     10.68s CPU     11.07s WALL (    3140 calls)
     cegterg      :   3882.73s CPU  16639.21s WALL (    1540 calls)

     Called by *egterg:
     cdiaghg      :    389.00s CPU   7625.04s WALL (    5097 calls)
     h_psi        :   2283.53s CPU   6248.62s WALL (    5117 calls)
     s_psi        :    261.30s CPU    264.67s WALL (    5117 calls)
     g_psi        :      3.70s CPU      4.08s WALL (    3557 calls)

     Called by h_psi:
     h_psi:calbec :    274.31s CPU    598.16s WALL (    5117 calls)
     vloc_psi     :   1743.35s CPU   5372.65s WALL (    5117 calls)
     add_vuspsi   :    261.35s CPU    267.78s WALL (    5117 calls)

     General routines
     calbec       :    407.84s CPU    956.87s WALL (    6757 calls)
     fft          :      2.50s CPU     11.74s WALL (    1988 calls)
     ffts         :      0.25s CPU      1.24s WALL (     310 calls)
     fftw         :   2089.76s CPU   6458.93s WALL ( 3978924 calls)
     interpolate  :      0.37s CPU      1.60s WALL (     156 calls)

     Parallel routines

     PWSCF        :      1h18m CPU      5h16m WALL


   This run was terminated on:   1:52:45   4Dec2022            

=------------------------------------------------------------------------------=
   JOB DONE.
=------------------------------------------------------------------------------=
