
     Program PWSCF v.7.1 starts on 19Oct2022 at 17: 7:33 

     This program is part of the open-source Quantum ESPRESSO suite
     for quantum simulation of materials; please cite
         "P. Giannozzi et al., J. Phys.:Condens. Matter 21 395502 (2009);
         "P. Giannozzi et al., J. Phys.:Condens. Matter 29 465901 (2017);
         "P. Giannozzi et al., J. Chem. Phys. 152 154105 (2020);
          URL http://www.quantum-espresso.org", 
     in publications or presentations arising from this work. More details at
     http://www.quantum-espresso.org/quote

     Parallel version (MPI), running on     1 processors

     MPI processes distributed on     1 nodes
     1244 MiB available memory on the printing compute node when the environment starts

     Reading input from Fe.in

     Current dimensions of program PWSCF are:
     Max number of different atomic species (ntypx) = 10
     Max number of k-points (npk) =  40000
     Max angular momentum in pseudopotentials (lmaxx) =  4
     file Fe.pbe-spn-kjpaw_psl.0.2.1.UPF: wavefunction(s)  3D renormalized

     IMPORTANT: XC functional enforced from input :
     Exchange-correlation= PBE
                           (   1   4   3   4   0   0   0)
     Any further DFT definition will be discarded
     Please, verify this is what you really want

     Message from routine setup:
     using ibrav=0 with symmetry is DISCOURAGED, use correct ibrav instead

     Subspace diagonalization in iterative solution of the eigenvalue problem:
     a serial algorithm will be used


     G-vector sticks info
     --------------------
     sticks:   dense  smooth     PW     G-vecs:    dense   smooth      PW
     Sum         889     345    139                16757     4213    1061

     Using Slab Decomposition



     bravais-lattice index     =            0
     lattice parameter (alat)  =       5.4171  a.u.
     unit-cell volume          =      79.4827 (a.u.)^3
     number of atoms/cell      =            1
     number of atomic types    =            1
     number of electrons       =        16.00
     number of Kohn-Sham states=           12
     kinetic-energy cutoff     =      54.0000  Ry
     charge density cutoff     =     540.0000  Ry
     scf convergence threshold =      1.0E-08
     mixing beta               =       0.7000
     number of iterations used =            8  plain     mixing
     Exchange-correlation= PBE
                           (   1   4   3   4   0   0   0)

     celldm(1)=   5.417108  celldm(2)=   0.000000  celldm(3)=   0.000000
     celldm(4)=   0.000000  celldm(5)=   0.000000  celldm(6)=   0.000000

     crystal axes: (cart. coord. in units of alat)
               a(1) = (  -0.500000   0.500000   0.500000 )  
               a(2) = (   0.500000  -0.500000   0.500000 )  
               a(3) = (   0.500000   0.500000  -0.500000 )  

     reciprocal axes: (cart. coord. in units 2 pi/alat)
               b(1) = (  0.000000  1.000000  1.000000 )  
               b(2) = (  1.000000  0.000000  1.000000 )  
               b(3) = (  1.000000  1.000000  0.000000 )  


     PseudoPot. # 1 for Fe read from file:
     ./Fe.pbe-spn-kjpaw_psl.0.2.1.UPF
     MD5 check sum: e86618425769142926afa95317d90200
     Pseudo is Projector augmented-wave + core cor, Zval = 16.0
     Generated using "atomic" code by A. Dal Corso  v.5.0.99 svn rev. 10869
     Shape of augmentation charge: PSQ
     Using radial grid of 1191 points,  6 beta functions with: 
                l(1) =   0
                l(2) =   0
                l(3) =   1
                l(4) =   1
                l(5) =   2
                l(6) =   2
     Q(r) pseudized with 0 coefficients 


     atomic species   valence    mass     pseudopotential
        Fe            16.00    55.84500     Fe( 1.00)

     Starting magnetic structure 
     atomic species   magnetization
        Fe           1.000

     48 Sym. Ops., with inversion, found



   Cartesian axes

     site n.     atom                  positions (alat units)
         1           Fe  tau(   1) = (   0.0000000   0.0000000   0.0000000  )

     number of k points=    47  Marzari-Vanderbilt smearing, width (Ry)=  0.0050
                       cart. coord. in units 2pi/alat
        k(    1) = (   0.0000000   0.0000000   0.0000000), wk =   0.0010000
        k(    2) = (   0.1000000   0.1000000   0.0000000), wk =   0.0120000
        k(    3) = (   0.2000000   0.2000000   0.0000000), wk =   0.0120000
        k(    4) = (   0.3000000   0.3000000   0.0000000), wk =   0.0120000
        k(    5) = (   0.4000000   0.4000000   0.0000000), wk =   0.0120000
        k(    6) = (  -0.5000000  -0.5000000   0.0000000), wk =   0.0060000
        k(    7) = (   0.2000000   0.1000000   0.1000000), wk =   0.0240000
        k(    8) = (   0.3000000   0.2000000   0.1000000), wk =   0.0480000
        k(    9) = (   0.4000000   0.3000000   0.1000000), wk =   0.0480000
        k(   10) = (   0.5000000   0.4000000   0.1000000), wk =   0.0480000
        k(   11) = (   0.4000000   0.2000000   0.2000000), wk =   0.0240000
        k(   12) = (   0.5000000   0.3000000   0.2000000), wk =   0.0480000
        k(   13) = (   0.6000000   0.4000000   0.2000000), wk =   0.0240000
        k(   14) = (   0.6000000   0.3000000   0.3000000), wk =   0.0240000
        k(   15) = (   0.2000000   0.2000000   0.2000000), wk =   0.0080000
        k(   16) = (   0.3000000   0.3000000   0.2000000), wk =   0.0240000
        k(   17) = (   0.4000000   0.4000000   0.2000000), wk =   0.0240000
        k(   18) = (   0.5000000   0.5000000   0.2000000), wk =   0.0120000
        k(   19) = (   0.0000000   0.0000000   0.2000000), wk =   0.0060000
        k(   20) = (   0.4000000   0.3000000   0.3000000), wk =   0.0240000
        k(   21) = (   0.5000000   0.4000000   0.3000000), wk =   0.0480000
        k(   22) = (   0.0000000  -0.1000000   0.3000000), wk =   0.0240000
        k(   23) = (   0.6000000   0.4000000   0.4000000), wk =   0.0080000
        k(   24) = (  -0.0000000  -0.2000000   0.4000000), wk =   0.0240000
        k(   25) = (   0.1000000  -0.1000000   0.4000000), wk =   0.0240000
        k(   26) = (   0.0000000  -0.3000000   0.5000000), wk =   0.0240000
        k(   27) = (   0.1000000  -0.2000000   0.5000000), wk =   0.0480000
        k(   28) = (  -1.0000000  -0.4000000  -0.4000000), wk =   0.0120000
        k(   29) = (  -0.9000000  -0.3000000  -0.4000000), wk =   0.0480000
        k(   30) = (  -0.8000000  -0.2000000  -0.4000000), wk =   0.0240000
        k(   31) = (  -0.8000000  -0.3000000  -0.3000000), wk =   0.0240000
        k(   32) = (   0.4000000   0.4000000   0.4000000), wk =   0.0080000
        k(   33) = (   0.5000000   0.5000000   0.4000000), wk =   0.0120000
        k(   34) = (   0.0000000   0.0000000   0.4000000), wk =   0.0060000
        k(   35) = (  -0.0000000  -0.1000000   0.5000000), wk =   0.0240000
        k(   36) = (   0.0000000  -0.2000000   0.6000000), wk =   0.0240000
        k(   37) = (   0.1000000  -0.1000000   0.6000000), wk =   0.0240000
        k(   38) = (  -1.0000000  -0.3000000  -0.3000000), wk =   0.0120000
        k(   39) = (  -0.9000000  -0.2000000  -0.3000000), wk =   0.0480000
        k(   40) = (  -0.8000000  -0.2000000  -0.2000000), wk =   0.0080000
        k(   41) = (  -0.0000000  -0.0000000   0.6000000), wk =   0.0060000
        k(   42) = (   0.0000000  -0.1000000   0.7000000), wk =   0.0240000
        k(   43) = (  -1.0000000  -0.2000000  -0.2000000), wk =   0.0120000
        k(   44) = (  -0.9000000  -0.1000000  -0.2000000), wk =   0.0240000
        k(   45) = (   0.0000000   0.0000000   0.8000000), wk =   0.0060000
        k(   46) = (  -1.0000000  -0.1000000  -0.1000000), wk =   0.0120000
        k(   47) = (  -1.0000000  -1.0000000  -1.0000000), wk =   0.0010000

     Dense  grid:    16757 G-vectors     FFT dimensions: (  36,  36,  36)

     Smooth grid:     4213 G-vectors     FFT dimensions: (  24,  24,  24)

     Estimated max dynamical RAM per process >      80.03 MB

     Check: negative core charge=   -0.000060
     Generating pointlists ...
     new r_m :   0.3572 (alat units)  1.9352 (a.u.) for type    1

     Initial potential from superposition of free atoms

     starting charge      15.9996, renormalised to      16.0000
     Starting wfcs are   13 randomized atomic wfcs
     Checking if some PAW data can be deallocated... 

     total cpu time spent up to now is        2.0 secs

     per-process dynamical memory:    31.2 Mb

     Self-consistent Calculation

     iteration #  1     ecut=    54.00 Ry     beta= 0.70
     Davidson diagonalization with overlap
     ethr =  1.00E-02,  avg # of iterations =  3.2

     negative rho (up, down):  0.000E+00 1.538E-04

     total cpu time spent up to now is        4.0 secs

     total energy              =    -328.33943482 Ry
     estimated scf accuracy    <       3.68304914 Ry

     total magnetization       =     5.22 Bohr mag/cell
     absolute magnetization    =     5.22 Bohr mag/cell

     iteration #  2     ecut=    54.00 Ry     beta= 0.70
     Davidson diagonalization with overlap
     ethr =  1.00E-02,  avg # of iterations =  1.5

     negative rho (up, down):  0.000E+00 1.253E-04

     total cpu time spent up to now is        5.6 secs

     total energy              =    -329.06441745 Ry
     estimated scf accuracy    <       0.85576505 Ry

     total magnetization       =     3.39 Bohr mag/cell
     absolute magnetization    =     3.46 Bohr mag/cell

     iteration #  3     ecut=    54.00 Ry     beta= 0.70
     Davidson diagonalization with overlap
     ethr =  5.35E-03,  avg # of iterations =  1.9

     negative rho (up, down):  0.000E+00 1.207E-04

     total cpu time spent up to now is        7.3 secs

     total energy              =    -329.10612469 Ry
     estimated scf accuracy    <       0.84752002 Ry

     total magnetization       =     2.64 Bohr mag/cell
     absolute magnetization    =     2.76 Bohr mag/cell

     iteration #  4     ecut=    54.00 Ry     beta= 0.70
     Davidson diagonalization with overlap
     ethr =  5.30E-03,  avg # of iterations =  2.0

     negative rho (up, down):  0.000E+00 8.378E-05

     total cpu time spent up to now is        9.1 secs

     total energy              =    -329.25961861 Ry
     estimated scf accuracy    <       0.00304920 Ry

     total magnetization       =     2.33 Bohr mag/cell
     absolute magnetization    =     2.51 Bohr mag/cell

     iteration #  5     ecut=    54.00 Ry     beta= 0.70
     Davidson diagonalization with overlap
     ethr =  1.91E-05,  avg # of iterations =  5.0

     negative rho (up, down):  0.000E+00 7.136E-05

     total cpu time spent up to now is       11.3 secs

     total energy              =    -329.26217099 Ry
     estimated scf accuracy    <       0.00056804 Ry

     total magnetization       =     2.23 Bohr mag/cell
     absolute magnetization    =     2.40 Bohr mag/cell

     iteration #  6     ecut=    54.00 Ry     beta= 0.70
     Davidson diagonalization with overlap
     ethr =  3.55E-06,  avg # of iterations =  2.6

     negative rho (up, down):  0.000E+00 5.013E-05

     total cpu time spent up to now is       13.1 secs

     total energy              =    -329.26204734 Ry
     estimated scf accuracy    <       0.00020756 Ry

     total magnetization       =     2.16 Bohr mag/cell
     absolute magnetization    =     2.32 Bohr mag/cell

     iteration #  7     ecut=    54.00 Ry     beta= 0.70
     Davidson diagonalization with overlap
     ethr =  1.30E-06,  avg # of iterations =  2.6

     negative rho (up, down):  0.000E+00 6.260E-05

     total cpu time spent up to now is       15.0 secs

     total energy              =    -329.26266257 Ry
     estimated scf accuracy    <       0.00037198 Ry

     total magnetization       =     2.14 Bohr mag/cell
     absolute magnetization    =     2.27 Bohr mag/cell

     iteration #  8     ecut=    54.00 Ry     beta= 0.70
     Davidson diagonalization with overlap
     ethr =  1.30E-06,  avg # of iterations =  1.5

     negative rho (up, down):  0.000E+00 6.019E-05

     total cpu time spent up to now is       16.7 secs

     total energy              =    -329.26277543 Ry
     estimated scf accuracy    <       0.00004241 Ry

     total magnetization       =     2.14 Bohr mag/cell
     absolute magnetization    =     2.29 Bohr mag/cell

     iteration #  9     ecut=    54.00 Ry     beta= 0.70
     Davidson diagonalization with overlap
     ethr =  2.65E-07,  avg # of iterations =  1.0

     negative rho (up, down):  0.000E+00 6.045E-05

     total cpu time spent up to now is       18.2 secs

     total energy              =    -329.26278030 Ry
     estimated scf accuracy    <       0.00000307 Ry

     total magnetization       =     2.14 Bohr mag/cell
     absolute magnetization    =     2.29 Bohr mag/cell

     iteration # 10     ecut=    54.00 Ry     beta= 0.70
     Davidson diagonalization with overlap
     ethr =  1.92E-08,  avg # of iterations =  2.5

     negative rho (up, down):  0.000E+00 5.963E-05

     total cpu time spent up to now is       20.0 secs

     total energy              =    -329.26278250 Ry
     estimated scf accuracy    <       0.00000288 Ry

     total magnetization       =     2.14 Bohr mag/cell
     absolute magnetization    =     2.29 Bohr mag/cell

     iteration # 11     ecut=    54.00 Ry     beta= 0.70
     Davidson diagonalization with overlap
     ethr =  1.80E-08,  avg # of iterations =  1.2

     negative rho (up, down):  0.000E+00 5.964E-05

     Magnetic moment per site  (integrated on atomic sphere of radius R)
     atom   1 (R=0.357)  charge= 14.4213  magn=  2.2055

     total cpu time spent up to now is       21.5 secs

     End of self-consistent calculation

 ------ SPIN UP ------------


          k = 0.0000 0.0000 0.0000 (   555 PWs)   bands (ev):

   -70.5927 -36.4072 -36.4072 -36.4072   9.1794  15.2546  15.2546  15.2546
    16.3746  16.3746  42.0509  42.0509

          k = 0.1000 0.1000 0.0000 (   543 PWs)   bands (ev):

   -70.5859 -36.4427 -36.4191 -36.4072   9.5803  15.1494  15.2406  15.4652
    16.2810  16.3836  39.6230  41.3578

          k = 0.2000 0.2000 0.0000 (   543 PWs)   bands (ev):

   -70.5691 -36.5348 -36.4501 -36.4071  10.6917  14.8809  15.1366  16.0447
    16.1968  16.4148  35.1897  39.3596

          k = 0.3000 0.3000 0.0000 (   541 PWs)   bands (ev):

   -70.5481 -36.6475 -36.4882 -36.4069  12.0558  14.5620  15.2612  16.3116
    16.4692  16.8290  30.5816  37.3372

          k = 0.4000 0.4000 0.0000 (   537 PWs)   bands (ev):

   -70.5311 -36.7378 -36.5190 -36.4067  12.6642  14.3136  16.2843  16.5269
    16.7973  17.5345  26.5352  35.9689

          k =-0.5000-0.5000 0.0000 (   528 PWs)   bands (ev):

   -70.5242 -36.7721 -36.5307 -36.4067  12.7109  14.2208  16.4483  16.5524
    17.8253  17.9766  24.4886  35.4903

          k = 0.2000 0.1000 0.1000 (   542 PWs)   bands (ev):

   -70.5742 -36.5063 -36.4320 -36.4158  10.3431  15.0206  15.0797  15.9051
    16.1555  16.4358  37.1917  38.3517

          k = 0.3000 0.2000 0.1000 (   532 PWs)   bands (ev):

   -70.5550 -36.6026 -36.4690 -36.4192  11.6536  14.7249  14.9185  16.1500
    16.5140  16.6968  33.0209  36.0328

          k = 0.4000 0.3000 0.1000 (   535 PWs)   bands (ev):

   -70.5362 -36.6959 -36.5107 -36.4199  12.7172  14.4384  15.2880  16.3339
    16.6373  17.7177  28.6129  34.5184

          k = 0.5000 0.4000 0.1000 (   531 PWs)   bands (ev):

   -70.5243 -36.7528 -36.5370 -36.4201  12.9046  14.2778  15.9908  16.4297
    17.0426  19.0216  25.1700  33.6810

          k = 0.4000 0.2000 0.2000 (   532 PWs)   bands (ev):

   -70.5381 -36.6704 -36.5070 -36.4353  12.8518  14.4588  14.7742  16.1956
    16.6460  17.8629  30.9934  31.7801

          k = 0.5000 0.3000 0.2000 (   528 PWs)   bands (ev):

   -70.5242 -36.7137 -36.5555 -36.4414  13.4022  14.3102  15.0327  16.3685
    16.7930  19.6144  27.1499  30.2708

          k = 0.6000 0.4000 0.2000 (   526 PWs)   bands (ev):

   -70.5189 -36.7272 -36.5778 -36.4429  13.4035  14.3021  15.2367  16.4461
    16.9279  21.2091  24.6988  29.8363

          k = 0.6000 0.3000 0.3000 (   529 PWs)   bands (ev):

   -70.5171 -36.6912 -36.6197 -36.4516  13.8504  14.2838  14.7211  16.5476
    16.7788  22.2538  25.6419  27.0827

          k = 0.2000 0.2000 0.2000 (   537 PWs)   bands (ev):

   -70.5600 -36.5889 -36.4343 -36.4343  11.3861  14.7435  14.7435  16.3400
    16.3400  16.7071  35.1930  35.1930

          k = 0.3000 0.3000 0.2000 (   527 PWs)   bands (ev):

   -70.5422 -36.6664 -36.4810 -36.4371  12.7157  14.4379  14.6146  16.3686
    16.4695  17.8179  31.0331  33.5945

          k = 0.4000 0.4000 0.2000 (   528 PWs)   bands (ev):

   -70.5281 -36.7183 -36.5292 -36.4394  13.2364  14.2344  15.3394  16.4641
    16.5410  19.3185  26.9381  32.5556

          k = 0.5000 0.5000 0.2000 (   520 PWs)   bands (ev):

   -70.5224 -36.7359 -36.5497 -36.4402  13.2233  14.1636  15.9036  16.5069
    16.5640  20.6252  24.6426  32.1954

          k = 0.0000 0.0000 0.2000 (   551 PWs)   bands (ev):

   -70.5799 -36.4522 -36.4311 -36.4311   9.9700  15.2627  15.2627  15.4672
    16.0326  16.5077  38.8306  40.6596

          k = 0.4000 0.3000 0.3000 (   523 PWs)   bands (ev):

   -70.5294 -36.6979 -36.5176 -36.4627  13.6765  14.2677  14.5229  16.4506
    16.5583  19.4482  29.2949  30.0036

          k = 0.5000 0.4000 0.3000 (   530 PWs)   bands (ev):

   -70.5219 -36.6954 -36.5696 -36.4711  13.7475  14.2030  15.0146  16.5318
    16.6080  21.6371  25.8260  28.9401

          k = 0.0000-0.1000 0.3000 (   542 PWs)   bands (ev):

   -70.5632 -36.5344 -36.4625 -36.4360  11.0431  15.0742  15.1712  15.8385
    15.9932  16.6353  35.4185  38.4306

          k = 0.6000 0.4000 0.4000 (   529 PWs)   bands (ev):

   -70.5195 -36.6361 -36.6361 -36.4827  13.9123  14.5487  14.5487  16.5985
    16.5985  24.4061  24.4061  26.6044

          k =-0.0000-0.2000 0.4000 (   536 PWs)   bands (ev):

   -70.5426 -36.6425 -36.5012 -36.4345  12.3433  14.7825  14.9803  16.0974
    16.7841  16.8826  30.8633  36.6910

          k = 0.1000-0.1000 0.4000 (   537 PWs)   bands (ev):

   -70.5450 -36.6066 -36.4984 -36.4549  12.2061  14.7962  15.1142  15.7985
    16.5453  16.9760  33.2456  34.1507

          k = 0.0000-0.3000 0.5000 (   536 PWs)   bands (ev):

   -70.5261 -36.7295 -36.5324 -36.4329  12.9054  14.5516  15.3019  16.2942
    17.5028  17.9936  26.7440  35.5830

          k = 0.1000-0.2000 0.5000 (   538 PWs)   bands (ev):

   -70.5271 -36.6862 -36.5417 -36.4579  13.1430  14.4815  15.0142  16.0966
    16.9806  18.1983  29.1266  32.2555

          k =-1.0000-0.4000-0.4000 (   530 PWs)   bands (ev):

   -70.5195 -36.7625 -36.5442 -36.4323  12.9319  14.4650  15.5487  16.2778
    17.8004  19.2782  24.5483  35.0416

          k =-0.9000-0.3000-0.4000 (   533 PWs)   bands (ev):

   -70.5158 -36.7359 -36.5698 -36.4574  13.2863  14.6021  14.9102  16.2371
    17.4254  20.1924  25.4530  31.3873

          k =-0.8000-0.2000-0.4000 (   536 PWs)   bands (ev):

   -70.5144 -36.7063 -36.5995 -36.4667  13.7681  14.0891  14.8867  16.3653
    17.0773  20.4856  27.5301  28.3946

          k =-0.8000-0.3000-0.3000 (   531 PWs)   bands (ev):

   -70.5094 -36.7045 -36.6328 -36.4682  13.8129  14.3618  14.5144  16.5709
    17.1132  22.7405  24.8956  27.6760

          k = 0.4000 0.4000 0.4000 (   529 PWs)   bands (ev):

   -70.5229 -36.6794 -36.5262 -36.5262  14.2015  14.2015  14.4827  16.5597
    16.5597  21.6488  28.2350  28.2350

          k = 0.5000 0.5000 0.4000 (   536 PWs)   bands (ev):

   -70.5207 -36.6424 -36.5804 -36.5295  14.1764  14.1924  14.6870  16.5796
    16.5828  23.9747  25.4224  27.8752

          k = 0.0000 0.0000 0.4000 (   538 PWs)   bands (ev):

   -70.5477 -36.5497 -36.4951 -36.4951  11.9671  15.1280  15.4423  15.4423
    16.0325  16.9603  35.6689  36.3509

          k =-0.0000-0.1000 0.5000 (   536 PWs)   bands (ev):

   -70.5285 -36.6307 -36.5351 -36.5051  12.9786  14.5286  15.3804  15.8237
    16.6864  17.6663  31.6680  34.2645

          k = 0.0000-0.2000 0.6000 (   536 PWs)   bands (ev):

   -70.5131 -36.7077 -36.5673 -36.5010  13.3707  14.3052  15.2199  16.0577
    17.4211  19.4780  27.4040  32.7734

          k = 0.1000-0.1000 0.6000 (   532 PWs)   bands (ev):

   -70.5119 -36.6760 -36.5830 -36.5220  13.5031  14.0190  15.4704  16.1431
    17.0908  19.3160  29.8979  30.3891

          k =-1.0000-0.3000-0.3000 (   530 PWs)   bands (ev):

   -70.5070 -36.7374 -36.5796 -36.4990  13.3341  14.3723  15.1544  16.0798
    17.7356  21.3309  24.7923  32.2169

          k =-0.9000-0.2000-0.3000 (   527 PWs)   bands (ev):

   -70.5015 -36.7092 -36.6180 -36.5216  13.5460  13.8967  15.3089  16.4491
    17.4517  21.9040  26.1640  29.2524

          k =-0.8000-0.2000-0.2000 (   535 PWs)   bands (ev):

   -70.4975 -36.6764 -36.6764 -36.5236  13.6807  13.6807  15.1993  17.0957
    17.0957  24.8159  24.8159  26.6964

          k =-0.0000-0.0000 0.6000 (   526 PWs)   bands (ev):

   -70.5108 -36.6310 -36.5768 -36.5768  13.3697  14.0130  16.0402  16.0402
    16.7477  18.9383  31.9794  31.9794

          k = 0.0000-0.1000 0.7000 (   528 PWs)   bands (ev):

   -70.4968 -36.6811 -36.6103 -36.5842  13.4004  13.5804  16.1626  16.3922
    17.3281  21.1650  28.4263  30.3415

          k =-1.0000-0.2000-0.2000 (   530 PWs)   bands (ev):

   -70.4914 -36.7063 -36.6231 -36.5808  13.2983  13.5001  16.1437  16.5026
    17.6559  23.5982  25.3872  29.7246

          k =-0.9000-0.1000-0.2000 (   526 PWs)   bands (ev):

   -70.4874 -36.6867 -36.6537 -36.5933  13.2664  13.2753  16.2564  17.0281
    17.4665  23.8480  27.1052  27.6506

          k = 0.0000 0.0000 0.8000 (   518 PWs)   bands (ev):

   -70.4834 -36.6655 -36.6450 -36.6450  13.1025  13.1286  16.9962  16.9962
    17.3390  23.3556  28.5681  28.5681

          k =-1.0000-0.1000-0.1000 (   514 PWs)   bands (ev):

   -70.4782 -36.6811 -36.6582 -36.6465  12.9586  12.9729  17.1237  17.2418
    17.5920  25.8655  26.4166  27.8812

          k =-1.0000-1.0000-1.0000 (   490 PWs)   bands (ev):

   -70.4725 -36.6716 -36.6716 -36.6716  12.7969  12.7969  17.5677  17.5677
    17.5677  27.1570  27.1570  27.1570

 ------ SPIN DOWN ----------


          k = 0.0000 0.0000 0.0000 (   555 PWs)   bands (ev):

   -67.9793 -33.8394 -33.8394 -33.8394   9.2852  17.1111  17.1111  17.1111
    19.1409  19.1409  41.7311  41.7311

          k = 0.1000 0.1000 0.0000 (   543 PWs)   bands (ev):

   -67.9718 -33.8789 -33.8524 -33.8394   9.6889  16.9835  17.0826  17.3417
    19.0098  19.1512  39.6602  41.1800

          k = 0.2000 0.2000 0.0000 (   543 PWs)   bands (ev):

   -67.9533 -33.9817 -33.8865 -33.8393  10.8283  16.6599  16.9287  17.9802
    18.8200  19.1902  35.6244  39.3648

          k = 0.3000 0.3000 0.0000 (   541 PWs)   bands (ev):

   -67.9304 -34.1071 -33.9284 -33.8393  12.4072  16.2796  16.7598  18.8297
    18.8554  19.2646  31.2989  37.3591

          k = 0.4000 0.4000 0.0000 (   537 PWs)   bands (ev):

   -67.9118 -34.2073 -33.9622 -33.8392  13.6302  15.9861  17.2601  18.9427
    19.3478  19.6573  27.5652  35.9557

          k =-0.5000-0.5000 0.0000 (   528 PWs)   bands (ev):

   -67.9045 -34.2454 -33.9750 -33.8392  13.9386  15.8771  18.0115  18.9816
    19.3855  19.9929  25.8178  35.4577

          k = 0.2000 0.1000 0.1000 (   542 PWs)   bands (ev):

   -67.9590 -33.9497 -33.8667 -33.8489  10.4642  16.8187  16.8969  17.8141
    18.8154  19.2063  37.4416  38.5909

          k = 0.3000 0.2000 0.1000 (   532 PWs)   bands (ev):

   -67.9380 -34.0570 -33.9075 -33.8528  11.8587  16.4678  16.6465  18.6288
    18.7105  19.3048  33.5829  36.3693

          k = 0.4000 0.3000 0.1000 (   535 PWs)   bands (ev):

   -67.9175 -34.1607 -33.9534 -33.8537  13.3740  16.1206  16.6231  18.8104
    19.3395  19.6801  29.4428  34.8596

          k = 0.5000 0.4000 0.1000 (   531 PWs)   bands (ev):

   -67.9046 -34.2238 -33.9823 -33.8540  14.0967  15.9244  17.2284  18.9361
    19.4717  20.5565  26.3495  34.0076

          k = 0.4000 0.2000 0.2000 (   532 PWs)   bands (ev):

   -67.9196 -34.1321 -33.9497 -33.8705  13.2999  16.1759  16.3464  18.6879
    19.3163  19.8171  31.6570  32.3524

          k = 0.5000 0.3000 0.2000 (   528 PWs)   bands (ev):

   -67.9045 -34.1802 -34.0035 -33.8773  14.4618  15.9320  16.3776  18.8441
    19.3887  21.2074  28.0392  30.8757

          k = 0.6000 0.4000 0.2000 (   526 PWs)   bands (ev):

   -67.8987 -34.1952 -34.0282 -33.8790  14.7304  15.9033  16.5831  18.9481
    19.4135  22.3833  25.8796  30.4325

          k = 0.6000 0.3000 0.3000 (   529 PWs)   bands (ev):

   -67.8966 -34.1549 -34.0752 -33.8885  15.2326  15.8082  16.1426  19.0252
    19.2905  23.4457  26.5812  27.8708

          k = 0.2000 0.2000 0.2000 (   537 PWs)   bands (ev):

   -67.9434 -34.0415 -33.8694 -33.8694  11.5433  16.4937  16.4937  18.6440
    19.0446  19.0446  35.5614  35.5614

          k = 0.3000 0.3000 0.2000 (   527 PWs)   bands (ev):

   -67.9241 -34.1278 -33.9211 -33.8727  13.0647  16.1058  16.2143  19.0081
    19.2359  19.7087  31.6687  33.9931

          k = 0.4000 0.4000 0.2000 (   528 PWs)   bands (ev):

   -67.9087 -34.1855 -33.9742 -33.8754  14.2431  15.8417  16.4427  19.0753
    19.3582  20.9247  27.8501  32.9440

          k = 0.5000 0.5000 0.2000 (   520 PWs)   bands (ev):

   -67.9025 -34.2051 -33.9968 -33.8764  14.4878  15.7492  16.9151  19.1165
    19.4012  21.8087  25.8597  32.5742

          k = 0.0000 0.0000 0.2000 (   551 PWs)   bands (ev):

   -67.9651 -33.8899 -33.8657 -33.8657  10.0834  17.0927  17.0927  17.3472
    18.6891  19.3037  38.8590  40.7942

          k = 0.4000 0.3000 0.3000 (   523 PWs)   bands (ev):

   -67.9101 -34.1626 -33.9619 -33.9012  14.4297  15.8359  15.9360  19.1199
    19.3374  21.1017  29.9877  30.6262

          k = 0.5000 0.4000 0.3000 (   530 PWs)   bands (ev):

   -67.9018 -34.1599 -34.0196 -33.9105  15.0306  15.7078  16.1913  19.2069
    19.3914  22.8548  26.7693  29.5789

          k = 0.0000-0.1000 0.3000 (   542 PWs)   bands (ev):

   -67.9469 -33.9813 -33.9002 -33.8713  11.1946  16.8634  17.0034  17.9222
    18.3314  19.4273  35.8456  38.6289

          k = 0.6000 0.4000 0.4000 (   529 PWs)   bands (ev):

   -67.8991 -34.0939 -34.0939 -33.9233  15.3382  15.8779  15.8779  19.3257
    19.3257  25.3485  25.3485  27.4333

          k =-0.0000-0.2000 0.4000 (   536 PWs)   bands (ev):

   -67.9245 -34.1015 -33.9428 -33.8698  12.7279  16.5160  16.7160  18.3978
    18.8035  19.5566  31.5711  36.8773

          k = 0.1000-0.1000 0.4000 (   537 PWs)   bands (ev):

   -67.9271 -34.0615 -33.9399 -33.8922  12.4921  16.6959  16.8372  18.0843
    18.5618  19.6219  33.8329  34.6691

          k = 0.0000-0.3000 0.5000 (   536 PWs)   bands (ev):

   -67.9065 -34.1979 -33.9770 -33.8681  13.9244  16.2431  16.7990  18.6503
    19.6207  19.9607  27.7391  35.7126

          k = 0.1000-0.2000 0.5000 (   538 PWs)   bands (ev):

   -67.9076 -34.1497 -33.9878 -33.8955  13.8980  16.2651  16.6713  18.3180
    19.2633  20.2054  29.9205  32.8252

          k =-1.0000-0.4000-0.4000 (   530 PWs)   bands (ev):

   -67.8994 -34.2345 -33.9901 -33.8675  14.2264  16.1412  17.1064  18.6966
    19.9649  20.5621  25.8370  35.5561

          k =-0.9000-0.3000-0.4000 (   533 PWs)   bands (ev):

   -67.8953 -34.2047 -34.0188 -33.8950  14.6104  16.2639  16.5103  18.5356
    19.6273  21.5686  26.5451  31.9494

          k =-0.8000-0.2000-0.4000 (   536 PWs)   bands (ev):

   -67.8938 -34.1716 -34.0521 -33.9051  14.9595  15.8380  16.5448  18.5690
    19.3529  21.9530  28.4169  29.0910

          k =-0.8000-0.3000-0.3000 (   531 PWs)   bands (ev):

   -67.8883 -34.1694 -34.0892 -33.9067  15.3469  15.9635  16.1537  18.8020
    19.3375  23.8386  25.9670  28.4177

          k = 0.4000 0.4000 0.4000 (   529 PWs)   bands (ev):

   -67.9029 -34.1420 -33.9717 -33.9717  15.4445  15.6648  15.6648  19.3558
    19.3558  22.9291  28.9324  28.9324

          k = 0.5000 0.5000 0.4000 (   536 PWs)   bands (ev):

   -67.9003 -34.1010 -34.0318 -33.9754  15.5010  15.6163  15.9260  19.3777
    19.4266  24.9089  26.3443  28.5716

          k = 0.0000 0.0000 0.4000 (   538 PWs)   bands (ev):

   -67.9300 -33.9990 -33.9361 -33.9361  12.2044  17.2349  17.2349  17.5114
    17.9767  19.6671  36.0673  36.8905

          k =-0.0000-0.1000 0.5000 (   536 PWs)   bands (ev):

   -67.9092 -34.0882 -33.9802 -33.9477  13.5424  16.5993  17.1569  17.7770
    18.6947  20.0026  32.3437  34.8308

          k = 0.0000-0.2000 0.6000 (   536 PWs)   bands (ev):

   -67.8924 -34.1732 -34.0157 -33.9433  14.5835  16.0898  16.9701  18.1527
    19.5269  21.0664  28.2920  33.3064

          k = 0.1000-0.1000 0.6000 (   532 PWs)   bands (ev):

   -67.8912 -34.1380 -34.0334 -33.9662  14.5729  15.9908  17.2613  18.0917
    19.1954  20.9930  30.6611  30.9955

          k =-1.0000-0.3000-0.3000 (   530 PWs)   bands (ev):

   -67.8858 -34.2060 -34.0293 -33.9411  14.8623  16.0342  16.8936  18.2025
    19.8919  22.4254  25.9407  32.7212

          k =-0.9000-0.2000-0.3000 (   527 PWs)   bands (ev):

   -67.8799 -34.1743 -34.0722 -33.9657  15.1525  15.6366  17.0502  18.4691
    19.5804  23.0559  27.0735  29.8873

          k =-0.8000-0.2000-0.2000 (   535 PWs)   bands (ev):

   -67.8756 -34.1375 -34.1375 -33.9677  15.4376  15.4376  16.8484  19.1793
    19.1793  25.7471  25.7471  27.4383

          k =-0.0000-0.0000 0.6000 (   526 PWs)   bands (ev):

   -67.8901 -34.0886 -34.0263 -34.0263  14.4028  16.1010  17.8613  17.8613
    18.7781  20.7109  32.5277  32.5277

          k = 0.0000-0.1000 0.7000 (   528 PWs)   bands (ev):

   -67.8748 -34.1430 -34.0634 -34.0350  14.9102  15.5044  18.0152  18.2871
    19.4225  22.3394  29.1058  30.8274

          k =-1.0000-0.2000-0.2000 (   530 PWs)   bands (ev):

   -67.8691 -34.1707 -34.0775 -34.0313  15.0913  15.2441  17.9992  18.4109
    19.8024  24.4445  26.2566  30.1668

          k =-0.9000-0.1000-0.2000 (   526 PWs)   bands (ev):

   -67.8648 -34.1486 -34.1116 -34.0448  15.0087  15.1191  18.0927  19.0311
    19.5750  24.6766  27.7681  28.1924

          k = 0.0000 0.0000 0.8000 (   518 PWs)   bands (ev):

   -67.8604 -34.1253 -34.1017 -34.1017  14.8136  15.0150  18.9713  18.9713
    19.4447  24.1166  28.9518  28.9518

          k =-1.0000-0.1000-0.1000 (   514 PWs)   bands (ev):

   -67.8550 -34.1420 -34.1163 -34.1036  14.7714  14.7883  19.1492  19.2737
    19.7306  26.3722  26.8895  28.1931

          k =-1.0000-1.0000-1.0000 (   490 PWs)   bands (ev):

   -67.8490 -34.1311 -34.1311 -34.1311  14.6146  14.6146  19.7034  19.7034
    19.7034  27.3729  27.3729  27.3729

     the Fermi energy is    17.4613 ev

!    total energy              =    -329.26278280 Ry
     total all-electron energy =     -2545.559318 Ry
     estimated scf accuracy    <          7.6E-09 Ry
     smearing contrib. (-TS)   =      -0.00006610 Ry
     internal energy E=F+TS    =    -329.26271670 Ry

     The total energy is F=E-TS. E is the sum of the following terms:
     one-electron contribution =    -112.87955638 Ry
     hartree contribution      =      66.54823430 Ry
     xc contribution           =     -34.79901821 Ry
     ewald contribution        =    -171.98176526 Ry
     one-center paw contrib.   =     -76.15061115 Ry

     total magnetization       =     2.14 Bohr mag/cell
     absolute magnetization    =     2.29 Bohr mag/cell

     convergence has been achieved in  11 iterations

     negative rho (up, down):  0.000E+00 5.964E-05

     Forces acting on atoms (cartesian axes, Ry/au):

     atom    1 type  1   force =     0.00000000    0.00000000    0.00000000

     Total force =     0.000000     Total SCF correction =     0.000000


     Computing stress (Cartesian axis) and pressure


     negative rho (up, down):  0.000E+00 5.964E-05
          total   stress  (Ry/bohr**3)                   (kbar)     P=      -92.30
  -0.00062744   0.00000000   0.00000000          -92.30        0.00        0.00
   0.00000000  -0.00062744   0.00000000            0.00      -92.30        0.00
   0.00000000   0.00000000  -0.00062744            0.00        0.00      -92.30


     Writing all to output data dir ./file.save/

     init_run     :      1.77s CPU      1.83s WALL (       1 calls)
     electrons    :     19.05s CPU     19.54s WALL (       1 calls)
     forces       :      0.24s CPU      0.24s WALL (       1 calls)
     stress       :      0.70s CPU      0.73s WALL (       1 calls)

     Called by init_run:
     wfcinit      :      0.56s CPU      0.58s WALL (       1 calls)
     potinit      :      0.50s CPU      0.52s WALL (       1 calls)
     hinit0       :      0.65s CPU      0.66s WALL (       1 calls)

     Called by electrons:
     c_bands      :     11.81s CPU     12.04s WALL (      11 calls)
     sum_band     :      2.53s CPU      2.63s WALL (      11 calls)
     v_of_rho     :      0.59s CPU      0.60s WALL (      12 calls)
     newd         :      0.51s CPU      0.58s WALL (      12 calls)
     PAW_pot      :      3.93s CPU      4.04s WALL (      12 calls)
     mix_rho      :      0.03s CPU      0.04s WALL (      11 calls)

     Called by c_bands:
     init_us_2    :      0.29s CPU      0.30s WALL (    2350 calls)
     init_us_2:cp :      0.29s CPU      0.29s WALL (    2350 calls)
     cegterg      :     11.26s CPU     11.46s WALL (    1034 calls)

     Called by *egterg:
     cdiaghg      :      0.52s CPU      0.53s WALL (    3390 calls)
     h_psi        :      8.28s CPU      8.45s WALL (    3484 calls)
     s_psi        :      0.50s CPU      0.51s WALL (    3484 calls)
     g_psi        :      0.04s CPU      0.04s WALL (    2356 calls)

     Called by h_psi:
     h_psi:calbec :      0.53s CPU      0.54s WALL (    3484 calls)
     vloc_psi     :      7.18s CPU      7.33s WALL (    3484 calls)
     add_vuspsi   :      0.51s CPU      0.52s WALL (    3484 calls)

     General routines
     calbec       :      0.82s CPU      0.83s WALL (    4988 calls)
     fft          :      0.34s CPU      0.35s WALL (     338 calls)
     ffts         :      0.14s CPU      0.14s WALL (      46 calls)
     fftw         :      7.30s CPU      7.45s WALL (   73452 calls)
     interpolate  :      0.16s CPU      0.16s WALL (      24 calls)

     Parallel routines

     PWSCF        :     21.94s CPU     22.54s WALL


   This run was terminated on:  17: 7:56  19Oct2022            

=------------------------------------------------------------------------------=
   JOB DONE.
=------------------------------------------------------------------------------=
