
     Program PWSCF v.6.5 starts on 21Nov2022 at 17:24:12 

     This program is part of the open-source Quantum ESPRESSO suite
     for quantum simulation of materials; please cite
         "P. Giannozzi et al., J. Phys.:Condens. Matter 21 395502 (2009);
         "P. Giannozzi et al., J. Phys.:Condens. Matter 29 465901 (2017);
          URL http://www.quantum-espresso.org", 
     in publications or presentations arising from this work. More details at
     http://www.quantum-espresso.org/quote

     Parallel version (MPI), running on     1 processors

     MPI processes distributed on     1 nodes
     Reading input from Fe3Si.in

     Current dimensions of program PWSCF are:
     Max number of different atomic species (ntypx) = 10
     Max number of k-points (npk) =  40000
     Max angular momentum in pseudopotentials (lmaxx) =  3
     Message from routine volume:
     axis vectors are left-handed

     IMPORTANT: XC functional enforced from input :
     Exchange-correlation= PBE
                           (   1   4   3   4   0   0   0)
     Any further DFT definition will be discarded
     Please, verify this is what you really want

               file Fe.pbe-spn-kjpaw_psl.0.2.1.UPF: wavefunction(s)  3D renormalized

     Subspace diagonalization in iterative solution of the eigenvalue problem:
     a serial algorithm will be used

     Message from routine setup:
     using ibrav=0 with symmetry is DISCOURAGED, use correct ibrav instead

     G-vector sticks info
     --------------------
     sticks:   dense  smooth     PW     G-vecs:    dense   smooth      PW
     Sum        2749    1573    451                95433    41151    6375



     bravais-lattice index     =            0
     lattice parameter (alat)  =      10.6864  a.u.
     unit-cell volume          =     305.0945 (a.u.)^3
     number of atoms/cell      =            4
     number of atomic types    =            2
     number of electrons       =        52.00
     number of Kohn-Sham states=           31
     kinetic-energy cutoff     =     100.0000  Ry
     charge density cutoff     =     700.0000  Ry
     convergence threshold     =      1.0E-08
     mixing beta               =       0.7000
     number of iterations used =            8  plain     mixing
     Exchange-correlation= PBE
                           (   1   4   3   4   0   0   0)
     nstep                     =           50


     celldm(1)=  10.686401  celldm(2)=   0.000000  celldm(3)=   0.000000
     celldm(4)=   0.000000  celldm(5)=   0.000000  celldm(6)=   0.000000

     crystal axes: (cart. coord. in units of alat)
               a(1) = (   0.500000   0.500000   0.000000 )  
               a(2) = (   0.500000   0.000000   0.500000 )  
               a(3) = (   0.000000   0.500000   0.500000 )  

     reciprocal axes: (cart. coord. in units 2 pi/alat)
               b(1) = (  1.000000  1.000000 -1.000000 )  
               b(2) = (  1.000000 -1.000000  1.000000 )  
               b(3) = ( -1.000000  1.000000  1.000000 )  


     PseudoPot. # 1 for Si read from file:
     /home/max/workQE/Pseudos/Si.pbe-n-rrkjus_psl.1.0.0.UPF
     MD5 check sum: 0b0bb1205258b0d07b9f9672cf965d36
     Pseudo is Ultrasoft + core correction, Zval =  4.0
     Generated using "atomic" code by A. Dal Corso v.5.1
     Using radial grid of 1141 points,  6 beta functions with: 
                l(1) =   0
                l(2) =   0
                l(3) =   1
                l(4) =   1
                l(5) =   2
                l(6) =   2
     Q(r) pseudized with 0 coefficients 


     PseudoPot. # 2 for Fe read from file:
     /home/max/workQE/Pseudos/Fe.pbe-spn-kjpaw_psl.0.2.1.UPF
     MD5 check sum: e86618425769142926afa95317d90200
     Pseudo is Projector augmented-wave + core cor, Zval = 16.0
     Generated using "atomic" code by A. Dal Corso v.5.0.99 svn rev. 10869
     Shape of augmentation charge: PSQ
     Using radial grid of 1191 points,  6 beta functions with: 
                l(1) =   0
                l(2) =   0
                l(3) =   1
                l(4) =   1
                l(5) =   2
                l(6) =   2
     Q(r) pseudized with 0 coefficients 


     atomic species   valence    mass     pseudopotential
        Si             4.00    28.08500     Si( 1.00)
        Fe            16.00    55.84500     Fe( 1.00)

     Starting magnetic structure 
     atomic species   magnetization
        Si           1.000
        Fe           1.000

     48 Sym. Ops., with inversion, found



   Cartesian axes

     site n.     atom                  positions (alat units)
         1           Fe  tau(   1) = (   0.5000000   0.5000000   0.5000000  )
         2           Fe  tau(   2) = (   0.2500000   0.2500000   0.2500000  )
         3           Fe  tau(   3) = (   0.7500000   0.7500000   0.7500000  )
         4           Si  tau(   4) = (   0.0000000   0.0000000   0.0000000  )

     number of k points=    47  Marzari-Vanderbilt smearing, width (Ry)=  0.0050
                       cart. coord. in units 2pi/alat
        k(    1) = (   0.0000000   0.0000000   0.0000000), wk =   0.0010000
        k(    2) = (  -0.1000000   0.1000000   0.1000000), wk =   0.0080000
        k(    3) = (  -0.2000000   0.2000000   0.2000000), wk =   0.0080000
        k(    4) = (  -0.3000000   0.3000000   0.3000000), wk =   0.0080000
        k(    5) = (  -0.4000000   0.4000000   0.4000000), wk =   0.0080000
        k(    6) = (   0.5000000  -0.5000000  -0.5000000), wk =   0.0040000
        k(    7) = (   0.0000000   0.0000000   0.2000000), wk =   0.0060000
        k(    8) = (  -0.1000000   0.1000000   0.3000000), wk =   0.0240000
        k(    9) = (  -0.2000000   0.2000000   0.4000000), wk =   0.0240000
        k(   10) = (  -0.3000000   0.3000000   0.5000000), wk =   0.0240000
        k(   11) = (   0.6000000  -0.6000000  -0.4000000), wk =   0.0240000
        k(   12) = (   0.5000000  -0.5000000  -0.3000000), wk =   0.0240000
        k(   13) = (   0.4000000  -0.4000000  -0.2000000), wk =   0.0240000
        k(   14) = (   0.3000000  -0.3000000  -0.1000000), wk =   0.0240000
        k(   15) = (   0.2000000  -0.2000000   0.0000000), wk =   0.0120000
        k(   16) = (   0.0000000   0.0000000   0.4000000), wk =   0.0060000
        k(   17) = (  -0.1000000   0.1000000   0.5000000), wk =   0.0240000
        k(   18) = (  -0.2000000   0.2000000   0.6000000), wk =   0.0240000
        k(   19) = (   0.7000000  -0.7000000  -0.3000000), wk =   0.0240000
        k(   20) = (   0.6000000  -0.6000000  -0.2000000), wk =   0.0240000
        k(   21) = (   0.5000000  -0.5000000  -0.1000000), wk =   0.0240000
        k(   22) = (   0.4000000  -0.4000000   0.0000000), wk =   0.0120000
        k(   23) = (   0.0000000   0.0000000   0.6000000), wk =   0.0060000
        k(   24) = (  -0.1000000   0.1000000   0.7000000), wk =   0.0240000
        k(   25) = (   0.8000000  -0.8000000  -0.2000000), wk =   0.0240000
        k(   26) = (   0.7000000  -0.7000000  -0.1000000), wk =   0.0240000
        k(   27) = (   0.6000000  -0.6000000  -0.0000000), wk =   0.0120000
        k(   28) = (   0.0000000   0.0000000   0.8000000), wk =   0.0060000
        k(   29) = (   0.9000000  -0.9000000  -0.1000000), wk =   0.0240000
        k(   30) = (   0.8000000  -0.8000000   0.0000000), wk =   0.0120000
        k(   31) = (   0.0000000   0.0000000  -1.0000000), wk =   0.0030000
        k(   32) = (   0.0000000   0.2000000   0.4000000), wk =   0.0240000
        k(   33) = (  -0.1000000   0.3000000   0.5000000), wk =   0.0480000
        k(   34) = (   0.8000000  -0.6000000  -0.4000000), wk =   0.0480000
        k(   35) = (   0.7000000  -0.5000000  -0.3000000), wk =   0.0240000
        k(   36) = (   0.0000000   0.2000000   0.6000000), wk =   0.0240000
        k(   37) = (   0.9000000  -0.7000000  -0.3000000), wk =   0.0480000
        k(   38) = (   0.8000000  -0.6000000  -0.2000000), wk =   0.0480000
        k(   39) = (   0.7000000  -0.5000000  -0.1000000), wk =   0.0480000
        k(   40) = (   0.6000000  -0.4000000   0.0000000), wk =   0.0240000
        k(   41) = (   1.0000000  -0.8000000  -0.2000000), wk =   0.0240000
        k(   42) = (   0.9000000  -0.7000000  -0.1000000), wk =   0.0480000
        k(   43) = (   0.8000000  -0.6000000   0.0000000), wk =   0.0240000
        k(   44) = (   0.0000000   0.2000000  -1.0000000), wk =   0.0120000
        k(   45) = (   1.0000000  -0.6000000  -0.2000000), wk =   0.0240000
        k(   46) = (   0.9000000  -0.5000000  -0.1000000), wk =   0.0240000
        k(   47) = (   0.0000000   0.4000000  -1.0000000), wk =   0.0120000

     Dense  grid:    95433 G-vectors     FFT dimensions: (  64,  64,  64)

     Smooth grid:    41151 G-vectors     FFT dimensions: (  50,  50,  50)

     Estimated max dynamical RAM per process >     645.79 MB
     Generating pointlists ...
     new r_m :   0.1786 (alat units)  1.9088 (a.u.) for type    1
     new r_m :   0.1786 (alat units)  1.9088 (a.u.) for type    2

     Check: negative core charge=   -0.000022

     Initial potential from superposition of free atoms

     starting charge   51.99813, renormalised to   52.00000
     Starting wfcs are   43 randomized atomic wfcs
     Checking if some PAW data can be deallocated... 

     total cpu time spent up to now is       47.2 secs

     Self-consistent Calculation

     iteration #  1     ecut=   100.00 Ry     beta= 0.70
     Davidson diagonalization with overlap
     ethr =  1.00E-02,  avg # of iterations =  2.8

     total cpu time spent up to now is      102.8 secs

     total energy              =    -996.72586728 Ry
     Harris-Foulkes estimate   =    -983.49974739 Ry
     estimated scf accuracy    <      12.85377660 Ry

     total magnetization       =    10.00 Bohr mag/cell
     absolute magnetization    =    13.84 Bohr mag/cell

     iteration #  2     ecut=   100.00 Ry     beta= 0.70
     Davidson diagonalization with overlap
     ethr =  1.00E-02,  avg # of iterations =  2.9

     total cpu time spent up to now is      154.1 secs

     total energy              =    -996.82026511 Ry
     Harris-Foulkes estimate   =    -999.03690483 Ry
     estimated scf accuracy    <       6.98896199 Ry

     total magnetization       =     7.68 Bohr mag/cell
     absolute magnetization    =     8.69 Bohr mag/cell

     iteration #  3     ecut=   100.00 Ry     beta= 0.70
     Davidson diagonalization with overlap
     ethr =  1.00E-02,  avg # of iterations =  3.6

     total cpu time spent up to now is      209.8 secs

     total energy              =    -995.97767582 Ry
     Harris-Foulkes estimate   =   -1000.64127903 Ry
     estimated scf accuracy    <      16.83791634 Ry

     total magnetization       =     4.47 Bohr mag/cell
     absolute magnetization    =     5.29 Bohr mag/cell

     iteration #  4     ecut=   100.00 Ry     beta= 0.70
     Davidson diagonalization with overlap
     ethr =  1.00E-02,  avg # of iterations =  3.2

     total cpu time spent up to now is      267.3 secs

     total energy              =    -997.29853811 Ry
     Harris-Foulkes estimate   =   -1003.51621504 Ry
     estimated scf accuracy    <      32.28586465 Ry

     total magnetization       =     3.23 Bohr mag/cell
     absolute magnetization    =     3.38 Bohr mag/cell

     iteration #  5     ecut=   100.00 Ry     beta= 0.70
     Davidson diagonalization with overlap
     ethr =  1.00E-02,  avg # of iterations =  3.0

     total cpu time spent up to now is      320.4 secs

     total energy              =    -999.19584791 Ry
     Harris-Foulkes estimate   =    -999.23436695 Ry
     estimated scf accuracy    <       0.33577539 Ry

     total magnetization       =     4.10 Bohr mag/cell
     absolute magnetization    =     4.56 Bohr mag/cell

     iteration #  6     ecut=   100.00 Ry     beta= 0.70
     Davidson diagonalization with overlap
     ethr =  6.46E-04,  avg # of iterations =  3.0

     total cpu time spent up to now is      370.1 secs

     total energy              =    -999.25226128 Ry
     Harris-Foulkes estimate   =    -999.31315800 Ry
     estimated scf accuracy    <       0.63620542 Ry

     total magnetization       =     4.49 Bohr mag/cell
     absolute magnetization    =     4.97 Bohr mag/cell

     iteration #  7     ecut=   100.00 Ry     beta= 0.70
     Davidson diagonalization with overlap
     ethr =  6.46E-04,  avg # of iterations =  1.5

     total cpu time spent up to now is      412.0 secs

     total energy              =    -999.28672865 Ry
     Harris-Foulkes estimate   =    -999.30291029 Ry
     estimated scf accuracy    <       0.10167066 Ry

     total magnetization       =     5.01 Bohr mag/cell
     absolute magnetization    =     5.40 Bohr mag/cell

     iteration #  8     ecut=   100.00 Ry     beta= 0.70
     Davidson diagonalization with overlap
     ethr =  1.96E-04,  avg # of iterations =  2.2

     total cpu time spent up to now is      455.8 secs

     total energy              =    -999.32849241 Ry
     Harris-Foulkes estimate   =    -999.33713549 Ry
     estimated scf accuracy    <       0.45331489 Ry

     total magnetization       =     5.17 Bohr mag/cell
     absolute magnetization    =     5.66 Bohr mag/cell

     iteration #  9     ecut=   100.00 Ry     beta= 0.70
     Davidson diagonalization with overlap
     ethr =  1.96E-04,  avg # of iterations =  1.1

     total cpu time spent up to now is      497.4 secs

     total energy              =    -999.31477789 Ry
     Harris-Foulkes estimate   =    -999.33454678 Ry
     estimated scf accuracy    <       0.23371715 Ry

     total magnetization       =     5.37 Bohr mag/cell
     absolute magnetization    =     5.92 Bohr mag/cell

     iteration # 10     ecut=   100.00 Ry     beta= 0.70
     Davidson diagonalization with overlap
     ethr =  1.96E-04,  avg # of iterations =  1.5

     total cpu time spent up to now is      539.9 secs

     total energy              =    -999.32605752 Ry
     Harris-Foulkes estimate   =    -999.32597553 Ry
     estimated scf accuracy    <       0.01217285 Ry

     total magnetization       =     5.23 Bohr mag/cell
     absolute magnetization    =     5.76 Bohr mag/cell

     iteration # 11     ecut=   100.00 Ry     beta= 0.70
     Davidson diagonalization with overlap
     ethr =  2.34E-05,  avg # of iterations =  1.6

     total cpu time spent up to now is      581.3 secs

     total energy              =    -999.32579131 Ry
     Harris-Foulkes estimate   =    -999.32665070 Ry
     estimated scf accuracy    <       0.01241793 Ry

     total magnetization       =     5.19 Bohr mag/cell
     absolute magnetization    =     5.71 Bohr mag/cell

     iteration # 12     ecut=   100.00 Ry     beta= 0.70
     Davidson diagonalization with overlap
     ethr =  2.34E-05,  avg # of iterations =  1.1

     total cpu time spent up to now is      622.2 secs

     total energy              =    -999.32627758 Ry
     Harris-Foulkes estimate   =    -999.32644419 Ry
     estimated scf accuracy    <       0.00187057 Ry

     total magnetization       =     5.17 Bohr mag/cell
     absolute magnetization    =     5.65 Bohr mag/cell

     iteration # 13     ecut=   100.00 Ry     beta= 0.70
     Davidson diagonalization with overlap
     ethr =  3.60E-06,  avg # of iterations =  2.5

     total cpu time spent up to now is      667.5 secs

     total energy              =    -999.32647187 Ry
     Harris-Foulkes estimate   =    -999.32646549 Ry
     estimated scf accuracy    <       0.00010620 Ry

     total magnetization       =     5.17 Bohr mag/cell
     absolute magnetization    =     5.65 Bohr mag/cell

     iteration # 14     ecut=   100.00 Ry     beta= 0.70
     Davidson diagonalization with overlap
     ethr =  2.04E-07,  avg # of iterations =  3.6

     total cpu time spent up to now is      719.3 secs

     total energy              =    -999.32649637 Ry
     Harris-Foulkes estimate   =    -999.32650244 Ry
     estimated scf accuracy    <       0.00014017 Ry

     total magnetization       =     5.18 Bohr mag/cell
     absolute magnetization    =     5.65 Bohr mag/cell

     iteration # 15     ecut=   100.00 Ry     beta= 0.70
     Davidson diagonalization with overlap
     ethr =  2.04E-07,  avg # of iterations =  1.0

     total cpu time spent up to now is      759.9 secs

     total energy              =    -999.32649695 Ry
     Harris-Foulkes estimate   =    -999.32650004 Ry
     estimated scf accuracy    <       0.00004799 Ry

     total magnetization       =     5.17 Bohr mag/cell
     absolute magnetization    =     5.64 Bohr mag/cell

     iteration # 16     ecut=   100.00 Ry     beta= 0.70
     Davidson diagonalization with overlap
     ethr =  9.23E-08,  avg # of iterations =  1.6

     total cpu time spent up to now is      801.6 secs

     total energy              =    -999.32650323 Ry
     Harris-Foulkes estimate   =    -999.32650312 Ry
     estimated scf accuracy    <       0.00000108 Ry

     total magnetization       =     5.17 Bohr mag/cell
     absolute magnetization    =     5.64 Bohr mag/cell

     iteration # 17     ecut=   100.00 Ry     beta= 0.70
     Davidson diagonalization with overlap
     ethr =  2.08E-09,  avg # of iterations =  3.6

     total cpu time spent up to now is      859.5 secs

     total energy              =    -999.32650395 Ry
     Harris-Foulkes estimate   =    -999.32650400 Ry
     estimated scf accuracy    <       0.00000049 Ry

     total magnetization       =     5.18 Bohr mag/cell
     absolute magnetization    =     5.64 Bohr mag/cell

     iteration # 18     ecut=   100.00 Ry     beta= 0.70
     Davidson diagonalization with overlap
     ethr =  9.44E-10,  avg # of iterations =  1.4

     total cpu time spent up to now is      901.0 secs

     total energy              =    -999.32650396 Ry
     Harris-Foulkes estimate   =    -999.32650398 Ry
     estimated scf accuracy    <       0.00000013 Ry

     total magnetization       =     5.17 Bohr mag/cell
     absolute magnetization    =     5.64 Bohr mag/cell

     iteration # 19     ecut=   100.00 Ry     beta= 0.70
     Davidson diagonalization with overlap
     ethr =  2.57E-10,  avg # of iterations =  2.3

     Magnetic moment per site:
     atom:    1    charge:   14.3765    magn:    2.5645    constr:    0.0000
     atom:    2    charge:   14.4805    magn:    1.3949    constr:    0.0000
     atom:    3    charge:   14.4805    magn:    1.3949    constr:    0.0000
     atom:    4    charge:    2.0476    magn:   -0.0671    constr:    0.0000

     total cpu time spent up to now is      946.3 secs

     End of self-consistent calculation

 ------ SPIN UP ------------


          k = 0.0000 0.0000 0.0000 (  5065 PWs)   bands (ev):

   -71.2132 -70.0438 -70.0290 -37.2721 -37.2721 -37.2721 -36.1458 -36.1458
   -36.1458 -36.0791 -36.0791 -36.0791   5.9862  12.9167  12.9167  13.1594
    13.1594  13.1594  14.2319  14.2319  14.2319  16.1501  16.1501  16.7123
    16.7123  16.7123  17.0848  17.0848  20.8938  21.5051  21.5051

          k =-0.1000 0.1000 0.1000 (  5092 PWs)   bands (ev):

   -71.2130 -70.0436 -70.0294 -37.2726 -37.2726 -37.2721 -36.1440 -36.1440
   -36.1428 -36.0824 -36.0804 -36.0804   6.1226  12.7854  12.7854  13.0120
    13.3899  13.3899  14.1975  14.2232  14.2232  16.1342  16.1342  16.5580
    16.6097  16.6097  17.0897  17.0897  20.4261  21.3680  21.3680

          k =-0.2000 0.2000 0.2000 (  5126 PWs)   bands (ev):

   -71.2126 -70.0428 -70.0306 -37.2738 -37.2738 -37.2721 -36.1390 -36.1390
   -36.1353 -36.0910 -36.0844 -36.0844   6.5203  12.5797  12.6722  12.6722
    13.7629  13.7629  14.0637  14.2224  14.2224  16.0783  16.0783  16.2756
    16.3922  16.3922  17.0471  17.0471  19.3851  21.1450  21.1450

          k =-0.3000 0.3000 0.3000 (  5144 PWs)   bands (ev):

   -71.2122 -70.0414 -70.0325 -37.2752 -37.2752 -37.2719 -36.1315 -36.1315
   -36.1262 -36.1015 -36.0905 -36.0905   7.1379  11.8375  12.6327  12.6327
    13.9595  14.0122  14.0122  14.3916  14.3916  15.9318  15.9318  16.0864
    16.2214  16.2214  16.9207  16.9207  18.1771  20.9946  20.9946

          k =-0.4000 0.4000 0.4000 (  5174 PWs)   bands (ev):

   -71.2118 -70.0396 -70.0348 -37.2764 -37.2764 -37.2716 -36.1231 -36.1231
   -36.1197 -36.1092 -36.0979 -36.0979   7.8630  10.9426  12.6354  12.6354
    14.0322  14.0492  14.0492  14.7359  14.7359  15.7440  15.7440  15.9218
    16.1449  16.1449  16.7533  16.7533  17.2975  20.9392  20.9392

          k = 0.5000-0.5000-0.5000 (  5168 PWs)   bands (ev):

   -71.2116 -70.0375 -70.0369 -37.2768 -37.2768 -37.2715 -36.1186 -36.1181
   -36.1181 -36.1108 -36.1025 -36.1025   8.2906  10.4398  12.6419  12.6419
    14.0546  14.0546  14.1258  14.9001  14.9001  15.6698  15.6698  15.7894
    16.1108  16.1108  16.6684  16.6684  17.0091  20.9358  20.9358

          k = 0.0000 0.0000 0.2000 (  5093 PWs)   bands (ev):

   -71.2130 -70.0435 -70.0295 -37.2731 -37.2731 -37.2714 -36.1447 -36.1447
   -36.1393 -36.0868 -36.0792 -36.0792   6.1677  12.5103  13.0011  13.2383
    13.2383  13.4038  14.1226  14.2548  14.2548  16.0821  16.1697  16.5557
    16.5557  16.5580  17.0808  17.1015  20.4257  20.9859  20.9859

          k =-0.1000 0.1000 0.3000 (  5122 PWs)   bands (ev):

   -71.2127 -70.0429 -70.0304 -37.2744 -37.2742 -37.2709 -36.1420 -36.1417
   -36.1312 -36.0960 -36.0813 -36.0807   6.4770  12.2341  12.9394  13.0803
    13.5368  13.7303  13.9839  14.2412  14.2806  15.9961  16.1619  16.3118
    16.3666  16.4056  17.0521  17.0884  19.7480  20.4511  20.5240

          k =-0.2000 0.2000 0.4000 (  5145 PWs)   bands (ev):

   -71.2122 -70.0418 -70.0320 -37.2759 -37.2751 -37.2710 -36.1364 -36.1358
   -36.1211 -36.1071 -36.0864 -36.0850   7.0192  11.8860  12.7550  12.8603
    13.8517  13.8851  14.0772  14.2539  14.3911  15.8547  16.0044  16.1230
    16.1860  16.2739  16.9465  17.0126  18.5555  20.1788  20.1920

          k =-0.3000 0.3000 0.5000 (  5153 PWs)   bands (ev):

   -71.2118 -70.0402 -70.0341 -37.2770 -37.2759 -37.2714 -36.1294 -36.1288
   -36.1185 -36.1099 -36.0926 -36.0916   7.7118  11.2395  12.5465  12.8017
    13.8876  14.0210  14.1005  14.6061  14.7026  15.6866  15.7331  16.0070
    16.0888  16.2178  16.7936  16.8522  17.5392  19.9840  20.0382

          k = 0.6000-0.6000-0.4000 (  5150 PWs)   bands (ev):

   -71.2116 -70.0381 -70.0364 -37.2774 -37.2763 -37.2718 -36.1264 -36.1233
   -36.1206 -36.1040 -36.0995 -36.0966   8.2914  10.6079  12.5333  12.7317
    13.9914  14.0449  14.1077  14.8979  14.9471  15.5852  15.6048  15.8164
    16.0623  16.1241  16.7109  16.7188  17.0628  19.8255  20.0704

          k = 0.5000-0.5000-0.3000 (  5153 PWs)   bands (ev):

   -71.2116 -70.0388 -70.0357 -37.2768 -37.2764 -37.2720 -36.1306 -36.1197
   -36.1171 -36.1080 -36.1035 -36.0916   8.1449  10.7754  12.6122  12.6424
    13.9665  14.0451  14.0918  14.8659  14.8732  15.5868  15.6645  15.8216
    16.0897  16.1130  16.7353  16.7984  17.1532  19.7526  20.2818

          k = 0.4000-0.4000-0.2000 (  5163 PWs)   bands (ev):

   -71.2119 -70.0407 -70.0334 -37.2760 -37.2756 -37.2720 -36.1358 -36.1241
   -36.1179 -36.1103 -36.0976 -36.0855   7.4732  11.5228  12.5622  12.7784
    13.8473  14.0278  14.0562  14.5384  14.5543  15.7043  15.8849  15.9757
    16.1636  16.1935  16.8238  16.9705  17.8566  19.7969  20.6243

          k = 0.3000-0.3000-0.1000 (  5154 PWs)   bands (ev):

   -71.2124 -70.0422 -70.0315 -37.2751 -37.2741 -37.2719 -36.1408 -36.1328
   -36.1274 -36.0999 -36.0903 -36.0810   6.8159  12.1633  12.5369  13.0579
    13.6806  13.9514  14.0474  14.1730  14.3315  15.9131  16.1158  16.1392
    16.2452  16.2884  16.9571  17.0885  18.9972  19.9642  20.9995

          k = 0.2000-0.2000 0.0000 (  5106 PWs)   bands (ev):

   -71.2128 -70.0432 -70.0301 -37.2738 -37.2730 -37.2719 -36.1439 -36.1398
   -36.1369 -36.0892 -36.0843 -36.0793   6.3458  12.5701  12.6058  13.2718
    13.2999  13.7084  14.0958  14.1746  14.2733  16.0543  16.1536  16.4102
    16.4249  16.4702  17.0474  17.1152  20.0637  20.4089  21.3141

          k = 0.0000 0.0000 0.4000 (  5133 PWs)   bands (ev):

   -71.2125 -70.0426 -70.0310 -37.2758 -37.2758 -37.2692 -36.1417 -36.1417
   -36.1222 -36.1071 -36.0798 -36.0798   6.6908  11.8856  13.2458  13.4593
    13.4593  13.6593  13.7942  14.3238  14.3238  15.8803  16.1671  16.2078
    16.2078  16.3407  17.0529  17.0705  19.5763  19.8305  19.8305

          k =-0.1000 0.1000 0.5000 (  5146 PWs)   bands (ev):

   -71.2121 -70.0419 -70.0321 -37.2773 -37.2770 -37.2685 -36.1384 -36.1384
   -36.1194 -36.1114 -36.0819 -36.0817   7.1372  11.5993  13.2270  13.2276
    13.6496  13.7819  13.9929  14.3067  14.4106  15.7235  15.9722  16.0437
    16.1185  16.2882  16.9986  17.0201  18.8169  19.1435  19.3114

          k =-0.2000 0.2000 0.6000 (  5137 PWs)   bands (ev):

   -71.2117 -70.0406 -70.0338 -37.2785 -37.2775 -37.2690 -36.1349 -36.1325
   -36.1292 -36.1011 -36.0865 -36.0861   7.7467  11.3182  12.6980  13.1331
    13.6827  13.9973  14.2285  14.3826  14.6944  15.5581  15.7107  15.9495
    16.0193  16.3081  16.8740  16.8938  17.7748  18.8134  19.0296

          k = 0.7000-0.7000-0.3000 (  5153 PWs)   bands (ev):

   -71.2114 -70.0389 -70.0357 -37.2788 -37.2769 -37.2705 -36.1389 -36.1285
   -36.1249 -36.0945 -36.0938 -36.0892   8.3338  10.9672  12.3406  12.9946
    13.7505  14.0386  14.2170  14.7193  15.0198  15.4852  15.5280  15.8497
    15.9202  16.2212  16.7128  16.8068  17.2040  18.6298  18.9880

          k = 0.6000-0.6000-0.2000 (  5150 PWs)   bands (ev):

   -71.2114 -70.0378 -70.0368 -37.2782 -37.2758 -37.2724 -36.1411 -36.1259
   -36.1167 -36.1026 -36.0984 -36.0850   8.4496  10.9168  12.3137  12.8159
    13.7351  14.0301  14.2528  14.8787  15.0993  15.4519  15.4742  15.7259
    15.9887  16.0065  16.8729  16.8862  17.0875  18.5530  19.1946

          k = 0.5000-0.5000-0.1000 (  5147 PWs)   bands (ev):

   -71.2116 -70.0397 -70.0348 -37.2768 -37.2753 -37.2732 -36.1410 -36.1213
   -36.1151 -36.1062 -36.1055 -36.0812   7.9574  11.3457  12.5791  12.6432
    13.6568  14.0313  14.2285  14.6545  14.8265  15.4655  15.6819  15.8069
    16.0768  16.0942  16.8817  17.0357  17.6520  18.5736  19.6687

          k = 0.4000-0.4000 0.0000 (  5142 PWs)   bands (ev):

   -71.2120 -70.0412 -70.0329 -37.2757 -37.2753 -37.2723 -36.1412 -36.1243
   -36.1166 -36.1117 -36.0977 -36.0797   7.3266  11.7728  12.5351  13.0770
    13.5480  14.0364  14.0656  14.4348  14.4532  15.6628  15.9463  15.9670
    16.1359  16.2215  16.8838  17.1055  18.6813  18.7391  20.3374

          k = 0.0000 0.0000 0.6000 (  5141 PWs)   bands (ev):

   -71.2118 -70.0416 -70.0327 -37.2790 -37.2790 -37.2665 -36.1374 -36.1374
   -36.1322 -36.1011 -36.0811 -36.0811   7.4739  11.3216  13.3419  13.6254
    13.7589  13.7657  13.7657  14.4282  14.4282  15.5536  15.9011  15.9011
    16.0163  16.2681  16.9257  17.0579  18.4177  18.6023  18.6023

          k =-0.1000 0.1000 0.7000 (  5140 PWs)   bands (ev):

   -71.2115 -70.0408 -70.0338 -37.2803 -37.2799 -37.2660 -36.1434 -36.1342
   -36.1340 -36.0917 -36.0834 -36.0829   7.9639  11.1495  12.9740  13.5786
    13.5993  14.0170  14.1087  14.4049  14.6117  15.3791  15.7619  15.8392
    15.9021  16.3269  16.8290  16.9961  17.8310  18.0451  18.1656

          k = 0.8000-0.8000-0.2000 (  5155 PWs)   bands (ev):

   -71.2113 -70.0396 -70.0352 -37.2806 -37.2795 -37.2673 -36.1501 -36.1310
   -36.1286 -36.0885 -36.0868 -36.0840   8.4559  11.1283  12.4137  13.4098
    13.4747  14.0703  14.3521  14.4375  14.9371  15.4060  15.6107  15.7882
    15.8033  16.3780  16.6075  16.9058  17.2777  17.8680  18.0424

          k = 0.7000-0.7000-0.1000 (  5159 PWs)   bands (ev):

   -71.2112 -70.0381 -70.0368 -37.2800 -37.2777 -37.2699 -36.1512 -36.1290
   -36.1217 -36.0960 -36.0906 -36.0806   8.6735  11.3092  11.9302  13.1317
    13.4430  14.0435  14.4300  14.6547  15.1520  15.4519  15.4932  15.7078
    15.8171  16.0171  16.7985  16.9637  17.1349  17.7960  18.2296

          k = 0.6000-0.6000-0.0000 (  5164 PWs)   bands (ev):

   -71.2113 -70.0383 -70.0364 -37.2785 -37.2755 -37.2728 -36.1471 -36.1268
   -36.1140 -36.1050 -36.0970 -36.0796   8.4432  11.3725  12.0595  12.8500
    13.5174  14.0202  14.4936  14.6412  15.1601  15.4005  15.4126  15.7020
    15.9215  15.9866  17.0229  17.0481  17.3109  17.8674  18.8002

          k = 0.0000 0.0000 0.8000 (  5145 PWs)   bands (ev):

   -71.2113 -70.0407 -70.0341 -37.2816 -37.2816 -37.2642 -36.1526 -36.1334
   -36.1334 -36.0839 -36.0827 -36.0827   8.2981  11.0033  12.9675  13.4509
    14.0536  14.0536  14.0976  14.4911  14.4911  15.1241  15.7310  15.8806
    15.8806  16.3258  16.7666  17.0476  17.5322  17.5322  17.7200

          k = 0.9000-0.9000-0.1000 (  5166 PWs)   bands (ev):

   -71.2111 -70.0402 -70.0348 -37.2821 -37.2817 -37.2644 -36.1577 -36.1317
   -36.1309 -36.0848 -36.0840 -36.0793   8.6123  11.0251  12.7097  13.2067
    13.9358  14.1474  14.2228  14.4756  14.7454  15.0693  15.6784  15.8584
    15.9372  16.4322  16.5814  16.9729  17.1507  17.3218  17.6026

          k = 0.8000-0.8000 0.0000 (  5170 PWs)   bands (ev):

   -71.2111 -70.0393 -70.0357 -37.2814 -37.2802 -37.2666 -36.1573 -36.1303
   -36.1268 -36.0895 -36.0862 -36.0784   8.7492  11.2519  12.1931  13.2099
    13.5398  14.0959  14.3744  14.5382  14.9329  15.4309  15.6185  15.7445
    15.7929  16.2134  16.5747  16.9814  17.1461  17.5475  17.5783

          k = 0.0000 0.0000-1.0000 (  5138 PWs)   bands (ev):

   -71.2111 -70.0404 -70.0346 -37.2826 -37.2826 -37.2633 -36.1604 -36.1316
   -36.1316 -36.0835 -36.0835 -36.0774   8.6881  10.9585  12.8257  13.0988
    14.1970  14.1970  14.4633  14.4633  14.5446  14.6933  15.6206  16.0909
    16.0909  16.3930  16.6696  16.9514  16.9514  17.0437  17.5605

          k = 0.0000 0.2000 0.4000 (  5151 PWs)   bands (ev):

   -71.2123 -70.0422 -70.0315 -37.2757 -37.2754 -37.2703 -36.1416 -36.1362
   -36.1214 -36.1073 -36.0859 -36.0797   6.8570  11.9216  12.8239  13.3853
    13.4608  13.8595  14.0282  14.2046  14.3530  15.8520  16.1093  16.1564
    16.1589  16.3049  16.9862  17.0874  19.3420  19.4160  20.0642

          k =-0.1000 0.3000 0.5000 (  5153 PWs)   bands (ev):

   -71.2119 -70.0410 -70.0331 -37.2769 -37.2762 -37.2707 -36.1391 -36.1284
   -36.1188 -36.1105 -36.0926 -36.0815   7.4372  11.5824  12.7020  12.9922
    13.6650  14.0021  14.1337  14.3727  14.5490  15.6413  15.8622  15.9661
    16.1244  16.2514  16.8740  17.0365  18.2059  19.1105  19.6119

          k = 0.8000-0.6000-0.4000 (  5163 PWs)   bands (ev):

   -71.2116 -70.0394 -70.0352 -37.2780 -37.2759 -37.2717 -36.1368 -36.1268
   -36.1201 -36.1020 -36.0990 -36.0856   8.0911  11.0927  12.4730  12.8272
    13.7705  14.1047  14.1157  14.7168  14.8924  15.4980  15.6097  15.8450
    16.0484  16.1603  16.7999  16.8911  17.3514  18.9956  19.2836

          k = 0.7000-0.5000-0.3000 (  5164 PWs)   bands (ev):

   -71.2114 -70.0375 -70.0371 -37.2784 -37.2754 -37.2723 -36.1366 -36.1287
   -36.1148 -36.1055 -36.0947 -36.0895   8.4476  10.7621  12.3823  12.8131
    13.8209  14.1118  14.1272  14.9219  15.0615  15.4747  15.4820  15.7604
    16.0220  16.0658  16.7459  16.8072  17.0822  18.9918  19.1362

          k = 0.0000 0.2000 0.6000 (  5143 PWs)   bands (ev):

   -71.2118 -70.0411 -70.0332 -37.2788 -37.2781 -37.2679 -36.1388 -36.1324
   -36.1307 -36.1010 -36.0866 -36.0808   7.6137  11.3593  13.0888  13.1484
    13.6584  13.9621  14.1784  14.2979  14.5535  15.5354  15.8347  15.8553
    16.0607  16.2947  16.8861  17.0217  18.3756  18.4378  18.6079

          k = 0.9000-0.7000-0.3000 (  5162 PWs)   bands (ev):

   -71.2114 -70.0399 -70.0348 -37.2800 -37.2776 -37.2689 -36.1433 -36.1338
   -36.1250 -36.0934 -36.0917 -36.0823   8.1792  11.2077  12.5493  13.1030
    13.6314  14.1310  14.2578  14.4289  14.8701  15.3971  15.6116  15.7913
    15.9933  16.2681  16.7462  16.9932  17.5105  18.2212  18.2853

          k = 0.8000-0.6000-0.2000 (  5161 PWs)   bands (ev):

   -71.2113 -70.0383 -70.0366 -37.2804 -37.2759 -37.2710 -36.1473 -36.1324
   -36.1173 -36.1007 -36.0874 -36.0842   8.5837  11.1378  12.1378  13.0285
    13.5764  14.1175  14.2770  14.7028  15.1466  15.3584  15.4491  15.7463
    15.9407  16.1255  16.6955  16.8924  17.1887  18.0852  18.2692

          k = 0.7000-0.5000-0.1000 (  5162 PWs)   bands (ev):

   -71.2113 -70.0383 -70.0364 -37.2797 -37.2742 -37.2730 -36.1462 -36.1311
   -36.1112 -36.1074 -36.0922 -36.0813   8.4867  11.2324  12.1541  12.8934
    13.5697  14.0856  14.3447  14.6996  15.1360  15.3741  15.4179  15.7281
    15.9824  16.0235  16.8557  17.0223  17.2170  18.0344  18.5089

          k = 0.6000-0.4000 0.0000 (  5152 PWs)   bands (ev):

   -71.2116 -70.0399 -70.0347 -37.2783 -37.2757 -37.2716 -36.1421 -36.1276
   -36.1192 -36.1006 -36.1004 -36.0801   7.9892  11.3828  12.5977  12.7653
    13.6018  14.0939  14.2663  14.4957  14.8299  15.4319  15.6653  15.7831
    16.0839  16.1327  16.8607  17.0724  17.8786  18.1462  18.9856

          k = 1.0000-0.8000-0.2000 (  5158 PWs)   bands (ev):

   -71.2113 -70.0402 -70.0346 -37.2816 -37.2800 -37.2659 -36.1517 -36.1342
   -36.1287 -36.0877 -36.0844 -36.0821   8.3855  11.0921  12.7278  13.2951
    13.7106  14.1635  14.1818  14.4495  14.7713  15.2327  15.6816  15.8281
    15.8578  16.3585  16.6595  17.0378  17.4087  17.6501  17.7687

          k = 0.9000-0.7000-0.1000 (  5151 PWs)   bands (ev):

   -71.2111 -70.0391 -70.0358 -37.2820 -37.2784 -37.2676 -36.1554 -36.1335
   -36.1225 -36.0936 -36.0834 -36.0802   8.6985  11.2587  12.2544  13.1154
    13.5489  14.1492  14.3409  14.5153  14.9876  15.3008  15.5141  15.8401
    15.8944  16.2599  16.5359  16.9135  17.2145  17.5852  17.6449

          k = 0.8000-0.6000 0.0000 (  5149 PWs)   bands (ev):

   -71.2112 -70.0378 -70.0371 -37.2813 -37.2759 -37.2706 -36.1533 -36.1327
   -36.1159 -36.1011 -36.0864 -36.0795   8.7331  11.6567  11.6717  13.0521
    13.4266  14.0990  14.4786  14.5593  15.1810  15.3407  15.3994  15.7840
    15.9185  16.0082  16.7981  16.8536  17.2262  17.6461  17.8869

          k = 0.0000 0.2000-1.0000 (  5162 PWs)   bands (ev):

   -71.2111 -70.0398 -70.0352 -37.2827 -37.2807 -37.2651 -36.1591 -36.1329
   -36.1271 -36.0882 -36.0829 -36.0780   8.7312  11.1051  12.5878  13.0392
    13.8354  14.1966  14.2289  14.5338  14.8253  15.0973  15.7137  15.7148
    16.0754  16.4275  16.4436  16.8655  17.1633  17.2408  17.5565

          k = 1.0000-0.6000-0.2000 (  5162 PWs)   bands (ev):

   -71.2112 -70.0388 -70.0361 -37.2815 -37.2757 -37.2703 -36.1509 -36.1349
   -36.1164 -36.1005 -36.0854 -36.0809   8.5843  11.3215  12.2085  12.9838
    13.5306  14.2100  14.3804  14.4370  15.0872  15.2812  15.4308  15.8133
    15.9976  16.1139  16.6776  17.1157  17.1749  17.7041  17.8810

          k = 0.9000-0.5000-0.1000 (  5150 PWs)   bands (ev):

   -71.2111 -70.0375 -70.0374 -37.2821 -37.2732 -37.2728 -36.1537 -36.1351
   -36.1089 -36.1074 -36.0823 -36.0813   8.7561  11.5442  11.8758  12.9437
    13.4841  14.2218  14.3371  14.5349  15.2453  15.2693  15.2748  15.8666
    15.9913  16.1163  16.6239  16.7759  17.2872  17.6308  17.7079

          k = 0.0000 0.4000-1.0000 (  5162 PWs)   bands (ev):

   -71.2111 -70.0384 -70.0366 -37.2827 -37.2758 -37.2698 -36.1566 -36.1354
   -36.1152 -36.1004 -36.0814 -36.0795   8.8055  11.5096  12.0638  12.8519
    13.5448  14.2849  14.2854  14.4791  15.0918  15.2552  15.3477  15.9598
    16.0483  16.1943  16.4833  16.6589  17.3433  17.4482  17.5327

 ------ SPIN DOWN ----------


          k = 0.0000 0.0000 0.0000 (  5065 PWs)   bands (ev):

   -68.4154 -68.3845 -68.1714 -34.5481 -34.5481 -34.5481 -34.5462 -34.5462
   -34.5462 -34.2523 -34.2523 -34.2523   5.9868  13.7164  13.7164  13.7164
    14.4710  14.4710  15.8024  15.8024  15.8024  17.9331  17.9331  17.9331
    18.8507  18.8507  18.9433  18.9433  21.0814  21.9369  21.9369

          k =-0.1000 0.1000 0.1000 (  5092 PWs)   bands (ev):

   -68.4141 -68.3849 -68.1723 -34.5682 -34.5592 -34.5592 -34.5365 -34.5365
   -34.5237 -34.2552 -34.2510 -34.2510   6.1223  13.5187  13.6837  13.6837
    14.5987  14.5987  15.7263  15.7856  15.7856  17.7402  17.8301  17.8301
    18.8501  18.8501  18.9187  18.9187  20.9966  21.9367  21.9367

          k =-0.2000 0.2000 0.2000 (  5126 PWs)   bands (ev):

   -68.4106 -68.3862 -68.1745 -34.5805 -34.5711 -34.5711 -34.5281 -34.5281
   -34.5062 -34.2617 -34.2476 -34.2476   6.5171  12.9477  13.6418  13.6418
    14.8988  14.8988  15.4977  15.7532  15.7532  17.4354  17.5734  17.5734
    18.8018  18.8018  18.8729  18.8729  20.6545  21.5439  21.9372

          k =-0.3000 0.3000 0.3000 (  5144 PWs)   bands (ev):

   -68.4057 -68.3883 -68.1774 -34.5814 -34.5810 -34.5810 -34.5225 -34.5225
   -34.5020 -34.2664 -34.2435 -34.2435   7.1294  12.0674  13.6348  13.6348
    15.2401  15.2401  15.3171  15.7530  15.7530  17.2063  17.2579  17.2579
    18.6831  18.6831  18.8291  18.8291  19.6169  21.5992  21.9474

          k =-0.4000 0.4000 0.4000 (  5174 PWs)   bands (ev):

   -68.4005 -68.3912 -68.1798 -34.5876 -34.5876 -34.5728 -34.5193 -34.5193
   -34.5109 -34.2673 -34.2402 -34.2402   7.8442  11.1037  13.6498  13.6498
    15.3699  15.4815  15.4815  15.8299  15.8299  16.8919  16.9894  16.9894
    18.5343  18.5343  18.8027  18.8027  18.8946  21.7029  21.9785

          k = 0.5000-0.5000-0.5000 (  5168 PWs)   bands (ev):

   -68.3971 -68.3937 -68.1808 -34.5899 -34.5899 -34.5656 -34.5189 -34.5183
   -34.5183 -34.2670 -34.2390 -34.2390   8.2583  10.5907  13.6591  13.6591
    15.4862  15.5563  15.5563  15.8930  15.8930  16.6542  16.8824  16.8824
    18.4604  18.4604  18.6843  18.7954  18.7954  21.7352  22.0053

          k = 0.0000 0.0000 0.2000 (  5093 PWs)   bands (ev):

   -68.4137 -68.3851 -68.1726 -34.5719 -34.5719 -34.5477 -34.5411 -34.5253
   -34.5253 -34.2585 -34.2496 -34.2496   6.1671  13.3187  13.7825  13.7825
    14.5699  14.6400  15.6310  15.8153  15.8153  17.7388  17.7388  17.8079
    18.8460  18.8550  18.8554  18.9547  20.8755  21.8332  21.8332

          k =-0.1000 0.1000 0.3000 (  5122 PWs)   bands (ev):

   -68.4110 -68.3860 -68.1744 -34.5845 -34.5838 -34.5552 -34.5336 -34.5170
   -34.5098 -34.2649 -34.2469 -34.2462   6.4745  12.9268  13.7282  13.8106
    14.7801  14.8354  15.4110  15.7882  15.8184  17.4624  17.5079  17.6857
    18.7612  18.8176  18.8368  18.9389  20.7531  21.1794  21.5434

          k =-0.2000 0.2000 0.4000 (  5145 PWs)   bands (ev):

   -68.4066 -68.3878 -68.1771 -34.5927 -34.5894 -34.5672 -34.5249 -34.5122
   -34.5013 -34.2693 -34.2443 -34.2421   7.0133  12.3094  13.5544  13.8030
    15.0805  15.1049  15.2627  15.7435  15.8429  17.1676  17.2127  17.5223
    18.6912  18.7167  18.7568  18.8927  19.9372  20.9130  21.2765

          k =-0.3000 0.3000 0.5000 (  5153 PWs)   bands (ev):

   -68.4016 -68.3902 -68.1797 -34.5973 -34.5869 -34.5758 -34.5177 -34.5109
   -34.5064 -34.2688 -34.2423 -34.2389   7.7003  11.4556  13.4476  13.7811
    15.1316  15.3728  15.4684  15.7951  15.9408  16.8931  16.9401  17.2831
    18.5651  18.6084  18.6831  18.8232  19.0811  20.9298  21.1347

          k = 0.6000-0.6000-0.4000 (  5150 PWs)   bands (ev):

   -68.3972 -68.3931 -68.1811 -34.5968 -34.5903 -34.5715 -34.5201 -34.5126
   -34.5093 -34.2661 -34.2413 -34.2379   8.2700  10.7650  13.4376  13.7328
    15.2049  15.5104  15.5759  15.9996  16.0037  16.7363  16.8210  16.9268
    18.4656  18.4876  18.7199  18.7201  18.7789  20.9060  21.1417

          k = 0.5000-0.5000-0.3000 (  5153 PWs)   bands (ev):

   -68.3985 -68.3922 -68.1808 -34.5937 -34.5910 -34.5731 -34.5204 -34.5169
   -34.5046 -34.2659 -34.2410 -34.2393   8.1268  10.9396  13.4841  13.6585
    15.1786  15.5426  15.5465  15.8633  16.0634  16.7625  16.9177  16.9281
    18.4598  18.5594  18.6894  18.7824  18.8274  20.8989  21.2867

          k = 0.4000-0.4000-0.2000 (  5163 PWs)   bands (ev):

   -68.4032 -68.3894 -68.1789 -34.5928 -34.5815 -34.5808 -34.5236 -34.5141
   -34.5002 -34.2672 -34.2426 -34.2416   7.4636  11.7688  13.5843  13.5862
    15.0830  15.3733  15.4615  15.6627  15.9572  16.8878  17.1873  17.2635
    18.5898  18.6939  18.7053  18.8479  19.3420  20.9571  21.5047

          k = 0.3000-0.3000-0.1000 (  5154 PWs)   bands (ev):

   -68.4082 -68.3872 -68.1761 -34.5878 -34.5832 -34.5678 -34.5324 -34.5131
   -34.5023 -34.2656 -34.2467 -34.2439   6.8110  12.5969  13.5492  13.7449
    14.8989  15.1461  15.3417  15.6623  15.8729  17.1886  17.4563  17.4901
    18.7322  18.7451  18.8253  18.8925  20.3332  21.0660  21.6961

          k = 0.2000-0.2000 0.0000 (  5106 PWs)   bands (ev):

   -68.4121 -68.3856 -68.1736 -34.5777 -34.5760 -34.5552 -34.5417 -34.5176
   -34.5157 -34.2602 -34.2499 -34.2475   6.3440  13.1759  13.5836  13.8110
    14.6769  14.8222  15.5586  15.7250  15.8340  17.5469  17.6086  17.7335
    18.8152  18.8366  18.8664  18.9192  20.9406  21.4791  21.8424

          k = 0.0000 0.0000 0.4000 (  5133 PWs)   bands (ev):

   -68.4092 -68.3866 -68.1756 -34.5970 -34.5970 -34.5517 -34.5226 -34.5072
   -34.5072 -34.2743 -34.2428 -34.2428   6.6880  12.5875  13.9683  13.9683
    14.7858  14.8554  15.1417  15.8431  15.8431  17.3422  17.3422  17.6723
    18.5959  18.7945  18.8337  18.9638  20.2997  20.9579  20.9579

          k =-0.1000 0.1000 0.5000 (  5146 PWs)   bands (ev):

   -68.4057 -68.3878 -68.1779 -34.6072 -34.6058 -34.5577 -34.5132 -34.5011
   -34.4991 -34.2810 -34.2399 -34.2389   7.1341  12.1915  13.8211  14.0371
    14.8243  14.9932  15.1110  15.8193  15.8715  17.1164  17.1199  17.6486
    18.4536  18.7304  18.7830  18.9331  20.0216  20.1262  20.4982

          k =-0.2000 0.2000 0.6000 (  5137 PWs)   bands (ev):

   -68.4015 -68.3897 -68.1803 -34.6123 -34.6069 -34.5652 -34.5081 -34.4991
   -34.4990 -34.2792 -34.2395 -34.2359   7.7454  11.7094  13.3390  14.0235
    14.7563  15.2875  15.3580  15.8120  16.0093  16.8679  16.8923  17.5707
    18.4078  18.5979  18.6596  18.8480  19.2465  19.9451  20.2461

          k = 0.7000-0.7000-0.3000 (  5153 PWs)   bands (ev):

   -68.3974 -68.3921 -68.1820 -34.6113 -34.6047 -34.5667 -34.5201 -34.5011
   -34.4946 -34.2702 -34.2425 -34.2350   8.3372  11.1743  13.0072  13.9382
    14.7353  15.4792  15.5967  15.9529  16.1876  16.6855  16.7468  17.2479
    18.4029  18.4753  18.5775  18.7398  18.8705  19.9146  20.1915

          k = 0.6000-0.6000-0.2000 (  5150 PWs)   bands (ev):

   -68.3960 -68.3933 -68.1822 -34.6044 -34.6042 -34.5657 -34.5309 -34.5065
   -34.4898 -34.2619 -34.2466 -34.2364   8.4521  11.0921  12.9085  13.8013
    14.7661  15.5195  15.7200  16.1025  16.1749  16.6922  16.7572  16.9595
    18.3079  18.6172  18.6373  18.7372  18.8078  19.9133  20.3278

          k = 0.5000-0.5000-0.1000 (  5147 PWs)   bands (ev):

   -68.3999 -68.3908 -68.1808 -34.6029 -34.5927 -34.5757 -34.5231 -34.5148
   -34.4885 -34.2635 -34.2448 -34.2397   7.9534  11.6243  13.0424  13.6575
    14.8408  15.5349  15.6001  15.8142  16.1312  16.6548  17.0012  17.1866
    18.4143  18.6716  18.7222  18.7922  19.1901  19.9520  20.6817

          k = 0.4000-0.4000 0.0000 (  5142 PWs)   bands (ev):

   -68.4043 -68.3887 -68.1785 -34.5978 -34.5837 -34.5785 -34.5248 -34.5129
   -34.4933 -34.2672 -34.2436 -34.2425   7.3206  12.1774  13.4577  13.5596
    14.8856  15.3571  15.4680  15.5816  16.0156  16.8395  17.2763  17.3903
    18.5814  18.6770  18.8240  18.8513  20.0186  20.1140  21.1896

          k = 0.0000 0.0000 0.6000 (  5141 PWs)   bands (ev):

   -68.4034 -68.3885 -68.1796 -34.6191 -34.6191 -34.5573 -34.4996 -34.4931
   -34.4931 -34.2932 -34.2352 -34.2352   7.4758  11.8823  14.2320  14.2320
    14.5317  14.6003  15.2887  15.8437  15.8437  17.0306  17.0306  17.7003
    18.1921  18.6440  18.8185  18.9258  19.5149  19.8751  19.8751

          k =-0.1000 0.1000 0.7000 (  5140 PWs)   bands (ev):

   -68.4003 -68.3896 -68.1816 -34.6257 -34.6245 -34.5610 -34.4942 -34.4894
   -34.4892 -34.2960 -34.2335 -34.2323   7.9778  11.5962  13.6813  14.2999
    14.3688  14.8849  15.4911  15.8216  15.9315  16.8953  16.9189  17.7334
    18.0500  18.5333  18.7501  18.8494  19.2479  19.3657  19.5127

          k = 0.8000-0.8000-0.2000 (  5155 PWs)   bands (ev):

   -68.3972 -68.3912 -68.1831 -34.6258 -34.6227 -34.5617 -34.5092 -34.4903
   -34.4830 -34.2860 -34.2365 -34.2314   8.4919  11.4223  12.9006  14.2235
    14.2521  15.3851  15.5374  15.8745  16.2148  16.6938  16.8005  17.5436
    18.1286  18.3615  18.6453  18.7354  18.9305  19.3154  19.4153

          k = 0.7000-0.7000-0.1000 (  5159 PWs)   bands (ev):

   -68.3946 -68.3934 -68.1835 -34.6193 -34.6176 -34.5548 -34.5335 -34.4954
   -34.4797 -34.2697 -34.2442 -34.2328   8.7178  11.5103  12.2975  14.0411
    14.3170  15.5332  15.7896  16.0263  16.3866  16.5404  16.7199  17.1355
    18.2332  18.3701  18.6815  18.7624  18.8403  19.3163  19.5193

          k = 0.6000-0.6000-0.0000 (  5164 PWs)   bands (ev):

   -68.3964 -68.3925 -68.1826 -34.6111 -34.6074 -34.5596 -34.5383 -34.5040
   -34.4810 -34.2546 -34.2546 -34.2359   8.4604  11.6610  12.3376  13.8277
    14.5528  15.5183  15.9277  16.0578  16.1298  16.6558  16.7531  17.0422
    18.2409  18.5864  18.7558  18.7758  18.9942  19.3959  19.9507

          k = 0.0000 0.0000 0.8000 (  5145 PWs)   bands (ev):

   -68.3986 -68.3900 -68.1829 -34.6342 -34.6342 -34.5625 -34.4839 -34.4839
   -34.4810 -34.3079 -34.2295 -34.2295   8.3384  11.3543  14.0199  14.0640
    14.4888  14.4888  15.7713  15.7713  15.7769  16.9670  16.9670  17.7252
    17.8325  18.4548  18.7803  18.8063  19.0042  19.0042  19.1898

          k = 0.9000-0.9000-0.1000 (  5166 PWs)   bands (ev):

   -68.3969 -68.3907 -68.1839 -34.6360 -34.6352 -34.5632 -34.4903 -34.4832
   -34.4761 -34.3045 -34.2300 -34.2285   8.6873  11.2545  13.3802  13.8777
    14.4899  14.9615  15.6618  15.7751  16.0816  16.8921  16.9318  17.7043
    17.7804  18.3544  18.6846  18.7206  18.7804  18.9167  19.1637

          k = 0.8000-0.8000 0.0000 (  5170 PWs)   bands (ev):

   -68.3955 -68.3918 -68.1841 -34.6307 -34.6288 -34.5597 -34.5118 -34.4871
   -34.4754 -34.2882 -34.2356 -34.2297   8.8301  11.4464  12.5656  13.9784
    14.3060  15.4681  15.5949  15.8956  16.2942  16.6899  16.8148  17.4344
    18.0100  18.2890  18.6801  18.7172  18.8055  19.0391  19.1603

          k = 0.0000 0.0000-1.0000 (  5138 PWs)   bands (ev):

   -68.3967 -68.3905 -68.1843 -34.6396 -34.6396 -34.5646 -34.4807 -34.4807
   -34.4739 -34.3133 -34.2274 -34.2274   8.7853  11.1260  13.6532  13.8927
    14.6044  14.6044  15.7135  15.7135  16.0488  17.0203  17.0203  17.4606
    17.9292  18.3419  18.6351  18.6351  18.7157  18.8016  19.1552

          k = 0.0000 0.2000 0.4000 (  5151 PWs)   bands (ev):

   -68.4079 -68.3872 -68.1764 -34.5965 -34.5917 -34.5604 -34.5265 -34.5083
   -34.5019 -34.2712 -34.2440 -34.2426   6.8529  12.5198  13.6959  13.8362
    14.8525  15.0876  15.2024  15.7284  15.8917  17.1672  17.3405  17.6061
    18.6320  18.7576  18.8311  18.9170  20.5455  20.6532  20.7818

          k =-0.1000 0.3000 0.5000 (  5153 PWs)   bands (ev):

   -68.4035 -68.3890 -68.1790 -34.6050 -34.5922 -34.5709 -34.5171 -34.5107
   -34.4946 -34.2723 -34.2418 -34.2399   7.4318  11.9943  13.4560  13.7362
    14.9213  15.2561  15.4071  15.6845  16.0052  16.8609  17.1152  17.4916
    18.5223  18.6642  18.7675  18.8562  19.6189  20.3757  20.5280

          k = 0.8000-0.6000-0.4000 (  5163 PWs)   bands (ev):

   -68.3990 -68.3914 -68.1811 -34.6091 -34.5882 -34.5767 -34.5210 -34.5083
   -34.4946 -34.2674 -34.2434 -34.2372   8.0859  11.3172  13.1786  13.7581
    14.9073  15.4762  15.5706  15.8490  16.1521  16.6987  16.8559  17.2288
    18.4348  18.5896  18.6376  18.7744  18.9685  20.2569  20.3983

          k = 0.7000-0.5000-0.3000 (  5164 PWs)   bands (ev):

   -68.3959 -68.3936 -68.1820 -34.6101 -34.5890 -34.5732 -34.5286 -34.5037
   -34.4968 -34.2635 -34.2454 -34.2361   8.4427  10.9257  13.1002  13.7734
    14.8939  15.5545  15.5975  16.1251  16.1398  16.7084  16.7230  16.9773
    18.4066  18.4669  18.6430  18.7533  18.7808  20.2260  20.3433

          k = 0.0000 0.2000 0.6000 (  5143 PWs)   bands (ev):

   -68.4024 -68.3890 -68.1800 -34.6185 -34.6097 -34.5621 -34.5033 -34.5028
   -34.4902 -34.2852 -34.2373 -34.2360   7.6147  11.8621  13.6829  13.8909
    14.8024  14.9912  15.3636  15.7675  15.9871  16.8805  17.0036  17.6466
    18.2931  18.6363  18.7598  18.8866  19.6441  19.7578  19.8056

          k = 0.9000-0.7000-0.3000 (  5162 PWs)   bands (ev):

   -68.3987 -68.3908 -68.1820 -34.6253 -34.6050 -34.5666 -34.5161 -34.4941
   -34.4866 -34.2793 -34.2398 -34.2334   8.1921  11.5601  13.0718  13.8378
    14.6790  15.3476  15.5472  15.7863  16.2162  16.6876  16.8199  17.5063
    18.2514  18.5010  18.7031  18.7863  19.0587  19.5594  19.6337

          k = 0.8000-0.6000-0.2000 (  5161 PWs)   bands (ev):

   -68.3955 -68.3930 -68.1831 -34.6267 -34.5966 -34.5658 -34.5344 -34.4915
   -34.4853 -34.2671 -34.2468 -34.2326   8.6124  11.3407  12.6351  13.7981
    14.5860  15.5573  15.6584  16.0012  16.3796  16.5641  16.6884  17.2086
    18.3190  18.3728  18.5685  18.7676  18.8791  19.4842  19.6440

          k = 0.7000-0.5000-0.1000 (  5162 PWs)   bands (ev):

   -68.3962 -68.3926 -68.1827 -34.6234 -34.5889 -34.5711 -34.5370 -34.4975
   -34.4831 -34.2604 -34.2511 -34.2341   8.5062  11.4703  12.5701  13.7436
    14.6270  15.5453  15.7453  15.9881  16.3248  16.6118  16.7003  17.1329
    18.2655  18.5635  18.6165  18.7905  18.9145  19.5027  19.7745

          k = 0.6000-0.4000 0.0000 (  5152 PWs)   bands (ev):

   -68.3998 -68.3906 -68.1812 -34.6159 -34.5854 -34.5800 -34.5224 -34.5069
   -34.4856 -34.2685 -34.2439 -34.2373   7.9907  11.7474  12.9727  13.6810
    14.7811  15.4612  15.6648  15.6883  16.2047  16.6358  16.9290  17.3431
    18.3549  18.6389  18.7566  18.7948  19.3198  19.6251  20.1001

          k = 1.0000-0.8000-0.2000 (  5158 PWs)   bands (ev):

   -68.3979 -68.3906 -68.1831 -34.6349 -34.6227 -34.5627 -34.5019 -34.4837
   -34.4815 -34.2955 -34.2338 -34.2299   8.4251  11.4280  13.4041  13.7426
    14.6233  15.0528  15.6102  15.7793  16.1103  16.8236  16.8395  17.6974
    17.9483  18.4193  18.7589  18.7619  18.9067  19.1833  19.2235

          k = 0.9000-0.7000-0.1000 (  5151 PWs)   bands (ev):

   -68.3957 -68.3919 -68.1839 -34.6379 -34.6129 -34.5610 -34.5230 -34.4828
   -34.4776 -34.2831 -34.2394 -34.2293   8.7660  11.4949  12.6743  13.6004
    14.5761  15.4660  15.6195  15.8645  16.3238  16.6582  16.7656  17.4516
    18.1040  18.3019  18.5616  18.7054  18.8879  19.1186  19.1967

          k = 0.8000-0.6000 0.0000 (  5149 PWs)   bands (ev):

   -68.3940 -68.3937 -68.1838 -34.6337 -34.6001 -34.5524 -34.5488 -34.4882
   -34.4776 -34.2663 -34.2490 -34.2309   8.7905  11.9028  11.9552  13.6829
    14.5057  15.5745  15.7762  15.9842  16.4813  16.4991  16.6841  17.1705
    18.2289  18.4027  18.5451  18.7120  18.9298  19.2205  19.2924

          k = 0.0000 0.2000-1.0000 (  5162 PWs)   bands (ev):

   -68.3961 -68.3911 -68.1843 -34.6410 -34.6275 -34.5629 -34.5019 -34.4800
   -34.4745 -34.2991 -34.2326 -34.2277   8.8226  11.2869  13.2783  13.4387
    14.6525  15.1180  15.6773  15.7682  16.1838  16.8306  16.8890  17.6815
    17.7882  18.3170  18.5397  18.6991  18.8352  18.8959  19.1500

          k = 1.0000-0.6000-0.2000 (  5162 PWs)   bands (ev):

   -68.3960 -68.3921 -68.1834 -34.6355 -34.5913 -34.5700 -34.5362 -34.4855
   -34.4801 -34.2710 -34.2465 -34.2307   8.6262  11.6184  12.5905  13.5056
    14.6599  15.5347  15.6914  15.8218  16.4517  16.5891  16.6577  17.3405
    18.2175  18.4203  18.6363  18.7432  18.8723  19.2786  19.3164

          k = 0.9000-0.5000-0.1000 (  5150 PWs)   bands (ev):

   -68.3939 -68.3936 -68.1839 -34.6392 -34.5780 -34.5720 -34.5515 -34.4811
   -34.4794 -34.2595 -34.2568 -34.2296   8.8181  11.7823  12.2290  13.3730
    14.6513  15.6415  15.6701  15.9429  16.4911  16.5296  16.6466  17.2594
    18.2924  18.3089  18.5199  18.5901  18.9859  19.1483  19.2685

          k = 0.0000 0.4000-1.0000 (  5162 PWs)   bands (ev):

   -68.3946 -68.3927 -68.1843 -34.6431 -34.5940 -34.5602 -34.5474 -34.4783
   -34.4762 -34.2718 -34.2479 -34.2282   8.8861  11.7488  12.4487  13.1372
    14.7113  15.5812  15.6720  15.8724  16.3948  16.5596  16.7620  17.3768
    18.2583  18.2765  18.3429  18.5887  19.0443  19.0474  19.1234

     the Fermi energy is    17.4350 ev

!    total energy              =    -999.32650399 Ry
     Harris-Foulkes estimate   =    -999.32650400 Ry
     estimated scf accuracy    <          6.8E-09 Ry

     The total energy is the sum of the following terms:

     one-electron contribution =    -391.56493315 Ry
     hartree contribution      =     229.22450726 Ry
     xc contribution           =    -110.85260677 Ry
     ewald contribution        =    -497.68287883 Ry
     one-center paw contrib.   =    -228.45062496 Ry
     smearing contrib. (-TS)   =       0.00003246 Ry

     total magnetization       =     5.17 Bohr mag/cell
     absolute magnetization    =     5.64 Bohr mag/cell

     convergence has been achieved in  19 iterations

     Forces acting on atoms (cartesian axes, Ry/au):

     atom    1 type  2   force =     0.00000000    0.00000000    0.00000000
     atom    2 type  2   force =     0.00000000    0.00000000    0.00000000
     atom    3 type  2   force =     0.00000000    0.00000000   -0.00000000
     atom    4 type  1   force =     0.00000000    0.00000000    0.00000000

     Total force =     0.000000     Total SCF correction =     0.000000


     Computing stress (Cartesian axis) and pressure

          total   stress  (Ry/bohr**3)                   (kbar)     P=      -51.68
  -0.00035133  -0.00000000  -0.00000000          -51.68       -0.00       -0.00
  -0.00000000  -0.00035133   0.00000000           -0.00      -51.68        0.00
   0.00000000   0.00000000  -0.00035133            0.00        0.00      -51.68


     BFGS Geometry Optimization

     number of scf cycles    =   1
     number of bfgs steps    =   0

     enthalpy new            =    -999.3265039911 Ry

     new trust radius        =       0.0306832133 bohr
     Message from routine volume:
     axis vectors are left-handed
     new conv_thr            =       0.0000000100 Ry

     new unit-cell volume =    297.12581 a.u.^3 (    44.02950 Ang^3 )
     density =      7.37766 g/cm^3

CELL_PARAMETERS (alat= 10.68640128)
   0.495608391   0.495608391  -0.000000000
   0.495608391  -0.000000000   0.495608391
  -0.000000000   0.495608391   0.495608391

ATOMIC_POSITIONS (crystal)
Fe            0.5000000000        0.5000000000        0.5000000000
Fe            0.2500000000        0.2500000000        0.2500000000
Fe            0.7500000000        0.7500000000        0.7500000000
Si            0.0000000000        0.0000000000        0.0000000000



     Writing output data file ./file.save/
     NEW-OLD atomic charge density approx. for the potential

     Check: negative core charge=   -0.000022
     extrapolated charge   50.60544, renormalised to   52.00000

     total cpu time spent up to now is     1009.6 secs

     Self-consistent Calculation

     iteration #  1     ecut=   100.00 Ry     beta= 0.70
     Davidson diagonalization with overlap
     ethr =  1.00E-06,  avg # of iterations =  4.2

     total cpu time spent up to now is     1094.2 secs

     total energy              =    -995.93480594 Ry
     Harris-Foulkes estimate   =   -1009.06702304 Ry
     estimated scf accuracy    <       3.22512663 Ry

     total magnetization       =     4.69 Bohr mag/cell
     absolute magnetization    =     5.29 Bohr mag/cell

     iteration #  2     ecut=   100.00 Ry     beta= 0.70
     Davidson diagonalization with overlap
     ethr =  6.20E-03,  avg # of iterations =  4.0

     total cpu time spent up to now is     1167.4 secs

     total energy              =    -996.60724015 Ry
     Harris-Foulkes estimate   =   -1006.60081394 Ry
     estimated scf accuracy    <      38.23401938 Ry

     total magnetization       =     1.75 Bohr mag/cell
     absolute magnetization    =     1.92 Bohr mag/cell

     iteration #  3     ecut=   100.00 Ry     beta= 0.70
     Davidson diagonalization with overlap
     ethr =  6.20E-03,  avg # of iterations =  3.6

     total cpu time spent up to now is     1227.8 secs

     total energy              =    -999.42699872 Ry
     Harris-Foulkes estimate   =    -999.82688431 Ry
     estimated scf accuracy    <       3.98668703 Ry

     total magnetization       =     4.01 Bohr mag/cell
     absolute magnetization    =     4.27 Bohr mag/cell

     iteration #  4     ecut=   100.00 Ry     beta= 0.70
     Davidson diagonalization with overlap
     ethr =  6.20E-03,  avg # of iterations =  1.2

     total cpu time spent up to now is     1272.5 secs

     total energy              =    -999.41086761 Ry
     Harris-Foulkes estimate   =    -999.64727165 Ry
     estimated scf accuracy    <       2.18751773 Ry

     total magnetization       =     4.18 Bohr mag/cell
     absolute magnetization    =     4.43 Bohr mag/cell

     iteration #  5     ecut=   100.00 Ry     beta= 0.70
     Davidson diagonalization with overlap
     ethr =  4.21E-03,  avg # of iterations =  1.0

     total cpu time spent up to now is     1313.5 secs

     total energy              =    -999.29846298 Ry
     Harris-Foulkes estimate   =    -999.46450952 Ry
     estimated scf accuracy    <       1.03675763 Ry

     total magnetization       =     4.40 Bohr mag/cell
     absolute magnetization    =     4.70 Bohr mag/cell

     iteration #  6     ecut=   100.00 Ry     beta= 0.70
     Davidson diagonalization with overlap
     ethr =  1.99E-03,  avg # of iterations =  1.4

     total cpu time spent up to now is     1354.8 secs

     total energy              =    -999.30250736 Ry
     Harris-Foulkes estimate   =    -999.34684750 Ry
     estimated scf accuracy    <       0.29680670 Ry

     total magnetization       =     4.57 Bohr mag/cell
     absolute magnetization    =     4.93 Bohr mag/cell

     iteration #  7     ecut=   100.00 Ry     beta= 0.70
     Davidson diagonalization with overlap
     ethr =  5.71E-04,  avg # of iterations =  2.8

     total cpu time spent up to now is     1400.1 secs

     total energy              =    -999.32070620 Ry
     Harris-Foulkes estimate   =    -999.32815255 Ry
     estimated scf accuracy    <       0.07503311 Ry

     total magnetization       =     4.73 Bohr mag/cell
     absolute magnetization    =     5.09 Bohr mag/cell

     iteration #  8     ecut=   100.00 Ry     beta= 0.70
     Davidson diagonalization with overlap
     ethr =  1.44E-04,  avg # of iterations =  3.2

     total cpu time spent up to now is     1446.8 secs

     total energy              =    -999.33240707 Ry
     Harris-Foulkes estimate   =    -999.32993036 Ry
     estimated scf accuracy    <       0.03163318 Ry

     total magnetization       =     4.81 Bohr mag/cell
     absolute magnetization    =     5.19 Bohr mag/cell

     iteration #  9     ecut=   100.00 Ry     beta= 0.70
     Davidson diagonalization with overlap
     ethr =  6.08E-05,  avg # of iterations =  1.1

     total cpu time spent up to now is     1487.8 secs

     total energy              =    -999.33312201 Ry
     Harris-Foulkes estimate   =    -999.33334468 Ry
     estimated scf accuracy    <       0.04181411 Ry

     total magnetization       =     4.81 Bohr mag/cell
     absolute magnetization    =     5.19 Bohr mag/cell

     iteration # 10     ecut=   100.00 Ry     beta= 0.70
     Davidson diagonalization with overlap
     ethr =  6.08E-05,  avg # of iterations =  1.0

     total cpu time spent up to now is     1528.8 secs

     total energy              =    -999.32239906 Ry
     Harris-Foulkes estimate   =    -999.33340648 Ry
     estimated scf accuracy    <       0.03905004 Ry

     total magnetization       =     4.82 Bohr mag/cell
     absolute magnetization    =     5.21 Bohr mag/cell

     iteration # 11     ecut=   100.00 Ry     beta= 0.70
     Davidson diagonalization with overlap
     ethr =  6.08E-05,  avg # of iterations =  2.1

     total cpu time spent up to now is     1575.0 secs

     total energy              =    -999.32711498 Ry
     Harris-Foulkes estimate   =    -999.32690046 Ry
     estimated scf accuracy    <       0.00137803 Ry

     total magnetization       =     4.97 Bohr mag/cell
     absolute magnetization    =     5.38 Bohr mag/cell

     iteration # 12     ecut=   100.00 Ry     beta= 0.70
     Davidson diagonalization with overlap
     ethr =  2.65E-06,  avg # of iterations =  4.0

     total cpu time spent up to now is     1630.1 secs

     total energy              =    -999.32754745 Ry
     Harris-Foulkes estimate   =    -999.32771626 Ry
     estimated scf accuracy    <       0.00157969 Ry

     total magnetization       =     5.02 Bohr mag/cell
     absolute magnetization    =     5.43 Bohr mag/cell

     iteration # 13     ecut=   100.00 Ry     beta= 0.70
     Davidson diagonalization with overlap
     ethr =  2.65E-06,  avg # of iterations =  1.1

     total cpu time spent up to now is     1671.0 secs

     total energy              =    -999.32730772 Ry
     Harris-Foulkes estimate   =    -999.32759984 Ry
     estimated scf accuracy    <       0.00084385 Ry

     total magnetization       =     5.05 Bohr mag/cell
     absolute magnetization    =     5.46 Bohr mag/cell

     iteration # 14     ecut=   100.00 Ry     beta= 0.70
     Davidson diagonalization with overlap
     ethr =  1.62E-06,  avg # of iterations =  2.6

     total cpu time spent up to now is     1721.1 secs

     total energy              =    -999.32756631 Ry
     Harris-Foulkes estimate   =    -999.32754722 Ry
     estimated scf accuracy    <       0.00023739 Ry

     total magnetization       =     5.07 Bohr mag/cell
     absolute magnetization    =     5.51 Bohr mag/cell

     iteration # 15     ecut=   100.00 Ry     beta= 0.70
     Davidson diagonalization with overlap
     ethr =  4.57E-07,  avg # of iterations =  2.5

     total cpu time spent up to now is     1765.0 secs

     total energy              =    -999.32748494 Ry
     Harris-Foulkes estimate   =    -999.32758605 Ry
     estimated scf accuracy    <       0.00038231 Ry

     total magnetization       =     5.07 Bohr mag/cell
     absolute magnetization    =     5.51 Bohr mag/cell

     iteration # 16     ecut=   100.00 Ry     beta= 0.70
     Davidson diagonalization with overlap
     ethr =  4.57E-07,  avg # of iterations =  1.7

     total cpu time spent up to now is     1809.0 secs

     total energy              =    -999.32749858 Ry
     Harris-Foulkes estimate   =    -999.32751972 Ry
     estimated scf accuracy    <       0.00007860 Ry

     total magnetization       =     5.06 Bohr mag/cell
     absolute magnetization    =     5.48 Bohr mag/cell

     iteration # 17     ecut=   100.00 Ry     beta= 0.70
     Davidson diagonalization with overlap
     ethr =  1.51E-07,  avg # of iterations =  2.1

     total cpu time spent up to now is     1857.0 secs

     total energy              =    -999.32750698 Ry
     Harris-Foulkes estimate   =    -999.32751361 Ry
     estimated scf accuracy    <       0.00003502 Ry

     total magnetization       =     5.07 Bohr mag/cell
     absolute magnetization    =     5.49 Bohr mag/cell

     iteration # 18     ecut=   100.00 Ry     beta= 0.70
     Davidson diagonalization with overlap
     ethr =  6.74E-08,  avg # of iterations =  1.6

     total cpu time spent up to now is     1901.8 secs

     total energy              =    -999.32751128 Ry
     Harris-Foulkes estimate   =    -999.32751367 Ry
     estimated scf accuracy    <       0.00001923 Ry

     total magnetization       =     5.08 Bohr mag/cell
     absolute magnetization    =     5.51 Bohr mag/cell

     iteration # 19     ecut=   100.00 Ry     beta= 0.70
     Davidson diagonalization with overlap
     ethr =  3.70E-08,  avg # of iterations =  2.9

     total cpu time spent up to now is     1953.6 secs

     total energy              =    -999.32750227 Ry
     Harris-Foulkes estimate   =    -999.32752267 Ry
     estimated scf accuracy    <       0.00008338 Ry

     total magnetization       =     5.07 Bohr mag/cell
     absolute magnetization    =     5.50 Bohr mag/cell

     iteration # 20     ecut=   100.00 Ry     beta= 0.70
     Davidson diagonalization with overlap
     ethr =  3.70E-08,  avg # of iterations =  2.8

     total cpu time spent up to now is     2004.9 secs

     total energy              =    -999.32779706 Ry
     Harris-Foulkes estimate   =    -999.32779607 Ry
     estimated scf accuracy    <       0.00002060 Ry

     total magnetization       =     5.09 Bohr mag/cell
     absolute magnetization    =     5.52 Bohr mag/cell

     iteration # 21     ecut=   100.00 Ry     beta= 0.70
     Davidson diagonalization with overlap
     ethr =  3.70E-08,  avg # of iterations =  1.2

     total cpu time spent up to now is     2045.8 secs

     total energy              =    -999.32779953 Ry
     Harris-Foulkes estimate   =    -999.32779815 Ry
     estimated scf accuracy    <       0.00000943 Ry

     total magnetization       =     5.09 Bohr mag/cell
     absolute magnetization    =     5.53 Bohr mag/cell

     iteration # 22     ecut=   100.00 Ry     beta= 0.70
     Davidson diagonalization with overlap
     ethr =  1.81E-08,  avg # of iterations =  1.9

     total cpu time spent up to now is     2089.8 secs

     total energy              =    -999.32780126 Ry
     Harris-Foulkes estimate   =    -999.32780098 Ry
     estimated scf accuracy    <       0.00000273 Ry

     total magnetization       =     5.10 Bohr mag/cell
     absolute magnetization    =     5.53 Bohr mag/cell

     iteration # 23     ecut=   100.00 Ry     beta= 0.70
     Davidson diagonalization with overlap
     ethr =  5.25E-09,  avg # of iterations =  1.6

     total cpu time spent up to now is     2131.8 secs

     total energy              =    -999.32780175 Ry
     Harris-Foulkes estimate   =    -999.32780140 Ry
     estimated scf accuracy    <       0.00000132 Ry

     total magnetization       =     5.10 Bohr mag/cell
     absolute magnetization    =     5.53 Bohr mag/cell

     iteration # 24     ecut=   100.00 Ry     beta= 0.70
     Davidson diagonalization with overlap
     ethr =  2.54E-09,  avg # of iterations =  1.6

     total cpu time spent up to now is     2173.7 secs

     total energy              =    -999.32780213 Ry
     Harris-Foulkes estimate   =    -999.32780186 Ry
     estimated scf accuracy    <       0.00000103 Ry

     total magnetization       =     5.10 Bohr mag/cell
     absolute magnetization    =     5.53 Bohr mag/cell

     iteration # 25     ecut=   100.00 Ry     beta= 0.70
     Davidson diagonalization with overlap
     ethr =  1.98E-09,  avg # of iterations =  2.4

     total cpu time spent up to now is     2220.2 secs

     total energy              =    -999.32780240 Ry
     Harris-Foulkes estimate   =    -999.32780249 Ry
     estimated scf accuracy    <       0.00000017 Ry

     total magnetization       =     5.10 Bohr mag/cell
     absolute magnetization    =     5.54 Bohr mag/cell

     iteration # 26     ecut=   100.00 Ry     beta= 0.70
     Davidson diagonalization with overlap
     ethr =  3.30E-10,  avg # of iterations =  3.6

     Magnetic moment per site:
     atom:    1    charge:   14.3550    magn:    2.5360    constr:    0.0000
     atom:    2    charge:   14.4605    magn:    1.3659    constr:    0.0000
     atom:    3    charge:   14.4605    magn:    1.3659    constr:    0.0000
     atom:    4    charge:    2.0293    magn:   -0.0622    constr:    0.0000

     total cpu time spent up to now is     2279.8 secs

     End of self-consistent calculation

 ------ SPIN UP ------------


          k = 0.0000 0.0000 0.0000 (  5065 PWs)   bands (ev):

   -70.6755 -69.4883 -69.4716 -36.7385 -36.7385 -36.7385 -35.5967 -35.5967
   -35.5967 -35.5221 -35.5221 -35.5221   6.3630  13.3387  13.3387  13.5981
    13.5981  13.5981  14.7184  14.7184  14.7184  16.7172  16.7172  17.2768
    17.2768  17.2768  17.6731  17.6731  21.6981  22.1961  22.1961

          k =-0.1009 0.1009 0.1009 (  5092 PWs)   bands (ev):

   -70.6754 -69.4880 -69.4721 -36.7390 -36.7390 -36.7385 -35.5948 -35.5948
   -35.5934 -35.5259 -35.5236 -35.5236   6.5027  13.2077  13.2077  13.4522
    13.8322  13.8322  14.6834  14.7091  14.7091  16.7005  16.7005  17.1170
    17.1699  17.1699  17.6784  17.6784  21.1548  22.0571  22.0571

          k =-0.2018 0.2018 0.2018 (  5126 PWs)   bands (ev):

   -70.6749 -69.4872 -69.4735 -36.7404 -36.7404 -36.7385 -35.5891 -35.5891
   -35.5847 -35.5357 -35.5280 -35.5280   6.9097  13.0248  13.0944  13.0944
    14.2159  14.2159  14.5444  14.7067  14.7067  16.6392  16.6392  16.8256
    16.9460  16.9460  17.6344  17.6344  20.0459  21.8330  21.8330

          k =-0.3027 0.3027 0.3027 (  5144 PWs)   bands (ev):

   -70.6743 -69.4857 -69.4756 -36.7421 -36.7421 -36.7383 -35.5808 -35.5808
   -35.5744 -35.5476 -35.5348 -35.5348   7.5417  12.2844  13.0573  13.0573
    14.4335  14.4801  14.4801  14.8721  14.8721  16.4734  16.4734  16.6303
    16.7810  16.7810  17.5032  17.5032  18.7951  21.6834  21.6834

          k =-0.4035 0.4035 0.4035 (  5174 PWs)   bands (ev):

   -70.6738 -69.4836 -69.4782 -36.7435 -36.7435 -36.7379 -35.5715 -35.5715
   -35.5674 -35.5561 -35.5428 -35.5428   8.2851  11.3797  13.0630  13.0630
    14.5076  14.5222  14.5222  15.2211  15.2211  16.2694  16.2694  16.4572
    16.7103  16.7103  17.3294  17.3294  17.8918  21.6305  21.6305

          k = 0.5044-0.5044-0.5044 (  5168 PWs)   bands (ev):

   -70.6736 -69.4813 -69.4806 -36.7440 -36.7440 -36.7378 -35.5666 -35.5661
   -35.5661 -35.5574 -35.5477 -35.5477   8.7263  10.8656  13.0710  13.0710
    14.5281  14.5281  14.6048  15.3885  15.3885  16.1896  16.1896  16.3175
    16.6781  16.6781  17.2415  17.2415  17.5974  21.6291  21.6291

          k = 0.0000 0.0000 0.2018 (  5093 PWs)   bands (ev):

   -70.6753 -69.4879 -69.4722 -36.7397 -36.7397 -36.7376 -35.5955 -35.5955
   -35.5895 -35.5308 -35.5223 -35.5223   6.5488  12.9300  13.4264  13.6800
    13.6800  13.8473  14.6046  14.7425  14.7425  16.6458  16.7382  17.1141
    17.1141  17.1166  17.6690  17.6907  21.1661  21.6651  21.6651

          k =-0.1009 0.1009 0.3027 (  5122 PWs)   bands (ev):

   -70.6749 -69.4873 -69.4733 -36.7412 -36.7409 -36.7371 -35.5924 -35.5920
   -35.5805 -35.5411 -35.5247 -35.5240   6.8653  12.6537  13.3682  13.5234
    13.9845  14.1829  14.4602  14.7282  14.7689  16.5542  16.7300  16.8621
    16.9187  16.9588  17.6391  17.6773  20.4274  21.1410  21.1926

          k =-0.2018 0.2018 0.4035 (  5145 PWs)   bands (ev):

   -70.6744 -69.4861 -69.4751 -36.7429 -36.7421 -36.7372 -35.5860 -35.5853
   -35.5691 -35.5536 -35.5303 -35.5288   7.4200  12.3154  13.1937  13.2911
    14.3210  14.3446  14.5457  14.7339  14.8794  16.3982  16.5422  16.6862
    16.7391  16.8275  17.5293  17.5986  19.1847  20.8538  20.8675

          k =-0.3027 0.3027 0.5044 (  5153 PWs)   bands (ev):

   -70.6738 -69.4843 -69.4774 -36.7443 -36.7429 -36.7377 -35.5781 -35.5775
   -35.5665 -35.5566 -35.5372 -35.5361   8.1292  11.6765  12.9754  13.2344
    14.3566  14.4904  14.5769  15.0886  15.1921  16.2133  16.2578  16.5605
    16.6480  16.7758  17.3705  17.4320  18.1395  20.6624  20.6968

          k = 0.6053-0.6053-0.4035 (  5150 PWs)   bands (ev):

   -70.6736 -69.4820 -69.4800 -36.7447 -36.7434 -36.7381 -35.5751 -35.5715
   -35.5685 -35.5502 -35.5447 -35.5414   8.7252  11.0365  12.9619  13.1641
    14.4636  14.5172  14.5846  15.3900  15.4389  16.1028  16.1230  16.3548
    16.6266  16.6848  17.2850  17.2937  17.6521  20.4956  20.7293

          k = 0.5044-0.5044-0.3027 (  5153 PWs)   bands (ev):

   -70.6736 -69.4827 -69.4792 -36.7441 -36.7435 -36.7384 -35.5795 -35.5678
   -35.5650 -35.5543 -35.5488 -35.5361   8.5740  11.2078  13.0436  13.0713
    14.4371  14.5183  14.5675  15.3602  15.3614  16.1047  16.1851  16.3622
    16.6468  16.6791  17.3102  17.3762  17.7442  20.4189  20.9449

          k = 0.4035-0.4035-0.2018 (  5163 PWs)   bands (ev):

   -70.6740 -69.4849 -69.4766 -36.7431 -36.7426 -36.7384 -35.5852 -35.5727
   -35.5654 -35.5573 -35.5425 -35.5293   7.8847  11.9629  12.9859  13.2149
    14.3132  14.4981  14.5305  15.0165  15.0452  16.2310  16.4171  16.5289
    16.7287  16.7454  17.4019  17.5550  18.4656  20.4647  21.2951

          k = 0.3027-0.3027-0.1009 (  5154 PWs)   bands (ev):

   -70.6746 -69.4865 -69.4744 -36.7420 -36.7408 -36.7383 -35.5909 -35.5823
   -35.5760 -35.5457 -35.5344 -35.5244   7.2120  12.5982  12.9567  13.5006
    14.1355  14.4243  14.5136  14.6489  14.8216  16.4592  16.6742  16.6915
    16.7971  16.8400  17.5404  17.6776  19.6421  20.6384  21.6782

          k = 0.2018-0.2018 0.0000 (  5106 PWs)   bands (ev):

   -70.6751 -69.4876 -69.4728 -36.7405 -36.7395 -36.7382 -35.5945 -35.5902
   -35.5868 -35.5336 -35.5278 -35.5224   6.7310  12.9993  13.0250  13.7115
    13.7451  14.1590  14.5779  14.6576  14.7619  16.6155  16.7211  16.9647
    16.9793  17.0243  17.6342  17.7050  20.7715  21.0760  21.9995

          k = 0.0000 0.0000 0.4035 (  5133 PWs)   bands (ev):

   -70.6747 -69.4870 -69.4738 -36.7428 -36.7428 -36.7351 -35.5919 -35.5919
   -35.5706 -35.5535 -35.5230 -35.5230   7.0840  12.2995  13.6810  13.9094
    13.9094  14.1129  14.2629  14.8148  14.8148  16.4336  16.7391  16.7529
    16.7529  16.8927  17.6404  17.6581  20.2652  20.4813  20.4813

          k =-0.1009 0.1009 0.5044 (  5146 PWs)   bands (ev):

   -70.6742 -69.4862 -69.4751 -36.7447 -36.7443 -36.7343 -35.5880 -35.5880
   -35.5673 -35.5586 -35.5254 -35.5252   7.5404  12.0138  13.6683  13.6802
    14.1098  14.2388  14.4560  14.7968  14.9037  16.2656  16.5091  16.5862
    16.6904  16.8402  17.5836  17.6055  19.4519  19.8027  19.9502

          k =-0.2018 0.2018 0.6053 (  5137 PWs)   bands (ev):

   -70.6737 -69.4848 -69.4770 -36.7461 -36.7449 -36.7349 -35.5842 -35.5813
   -35.5781 -35.5470 -35.5306 -35.5300   8.1636  11.7403  13.1411  13.5766
    14.1440  14.4640  14.7121  14.8604  15.1892  16.0851  16.2374  16.4965
    16.5874  16.8625  17.4534  17.4738  18.3806  19.4622  19.6626

          k = 0.7062-0.7062-0.3027 (  5153 PWs)   bands (ev):

   -70.6734 -69.4829 -69.4793 -36.7464 -36.7442 -36.7367 -35.5891 -35.5768
   -35.5728 -35.5397 -35.5387 -35.5334   8.7648  11.3969  12.7719  13.4365
    14.2150  14.5093  14.6999  15.2103  15.5173  16.0017  16.0461  16.4089
    16.4750  16.7702  17.2876  17.3836  17.7973  19.2704  19.6201

          k = 0.6053-0.6053-0.2018 (  5150 PWs)   bands (ev):

   -70.6734 -69.4817 -69.4805 -36.7457 -36.7429 -36.7389 -35.5913 -35.5743
   -35.5638 -35.5485 -35.5437 -35.5290   8.8838  11.3490  12.7460  13.2520
    14.1983  14.5017  14.7362  15.3814  15.5967  15.9643  15.9873  16.2756
    16.5312  16.5679  17.4526  17.4665  17.6774  19.1890  19.8301

          k = 0.5044-0.5044-0.1009 (  5147 PWs)   bands (ev):

   -70.6736 -69.4837 -69.4782 -36.7441 -36.7423 -36.7398 -35.5908 -35.5696
   -35.5627 -35.5523 -35.5511 -35.5247   8.3794  11.7804  13.0231  13.0715
    14.1146  14.5042  14.7078  15.1556  15.3141  15.9795  16.2034  16.3614
    16.6190  16.6588  17.4626  17.6223  18.2559  19.2076  20.3134

          k = 0.4035-0.4035 0.0000 (  5142 PWs)   bands (ev):

   -70.6741 -69.4854 -69.4761 -36.7427 -36.7422 -36.7388 -35.5911 -35.5729
   -35.5639 -35.5590 -35.5426 -35.5229   7.7343  12.2058  12.9572  13.5346
    13.9988  14.5063  14.5415  14.9275  14.9309  16.1886  16.5001  16.5033
    16.7026  16.7697  17.4641  17.6952  19.3184  19.3735  20.9973

          k = 0.0000 0.0000 0.6053 (  5141 PWs)   bands (ev):

   -70.6739 -69.4859 -69.4758 -36.7467 -36.7467 -36.7319 -35.5867 -35.5867
   -35.5817 -35.5471 -35.5246 -35.5246   7.8842  11.7316  13.7934  14.0764
    14.2193  14.2268  14.2268  14.9236  14.9236  16.0904  16.4349  16.4349
    16.5926  16.8208  17.5074  17.6448  19.0597  19.2230  19.2230

          k =-0.1009 0.1009 0.7062 (  5140 PWs)   bands (ev):

   -70.6735 -69.4850 -69.4770 -36.7482 -36.7478 -36.7313 -35.5941 -35.5829
   -35.5827 -35.5366 -35.5272 -35.5267   8.3843  11.5623  13.4184  14.0394
    14.0577  14.4845  14.5795  14.8987  15.1079  15.9056  16.2924  16.3731
    16.4760  16.8832  17.4055  17.5801  18.4352  18.6729  18.7764

          k = 0.8071-0.8071-0.2018 (  5155 PWs)   bands (ev):

   -70.6732 -69.4837 -69.4786 -36.7486 -36.7472 -36.7328 -35.6016 -35.5793
   -35.5765 -35.5330 -35.5311 -35.5280   8.8859  11.5500  12.8530  13.8670
    13.9350  14.5416  14.8406  14.9239  15.4322  15.9319  16.1341  16.3246
    16.3711  16.9310  17.1775  17.4859  17.8727  18.4873  18.6514

          k = 0.7062-0.7062-0.1009 (  5159 PWs)   bands (ev):

   -70.6731 -69.4820 -69.4804 -36.7478 -36.7452 -36.7359 -35.6027 -35.5772
   -35.5689 -35.5414 -35.5351 -35.5243   9.1083  11.7427  12.3646  13.5803
    13.9008  14.5146  14.9213  15.1529  15.6520  15.9651  16.0105  16.2662
    16.3686  16.5528  17.3768  17.5465  17.7271  18.4110  18.8419

          k = 0.6053-0.6053 0.0000 (  5164 PWs)   bands (ev):

   -70.6733 -69.4822 -69.4801 -36.7461 -36.7425 -36.7394 -35.5979 -35.5753
   -35.5604 -35.5515 -35.5421 -35.5231   8.8745  11.8068  12.4996  13.2875
    13.9733  14.4913  14.9831  15.1456  15.6605  15.9125  15.9232  16.2557
    16.4539  16.5463  17.6105  17.6348  17.9043  18.4833  19.4245

          k = 0.0000 0.0000 0.8071 (  5145 PWs)   bands (ev):

   -70.6732 -69.4849 -69.4774 -36.7498 -36.7498 -36.7292 -35.6045 -35.5818
   -35.5818 -35.5280 -35.5266 -35.5266   8.7238  11.4170  13.4054  13.9119
    14.5256  14.5256  14.5699  14.9863  14.9863  15.6388  16.3074  16.4140
    16.4140  16.8848  17.3399  17.6341  18.1261  18.1261  18.3354

          k = 0.9080-0.9080-0.1009 (  5166 PWs)   bands (ev):

   -70.6730 -69.4843 -69.4782 -36.7503 -36.7499 -36.7294 -35.6102 -35.5798
   -35.5789 -35.5291 -35.5281 -35.5229   9.0425  11.4456  13.1460  13.6655
    14.4123  14.6228  14.7019  14.9690  15.2329  15.5870  16.2467  16.3951
    16.4718  16.9952  17.1444  17.5554  17.7393  17.9130  18.2125

          k = 0.8071-0.8071 0.0000 (  5170 PWs)   bands (ev):

   -70.6730 -69.4833 -69.4792 -36.7496 -36.7482 -36.7320 -35.6096 -35.5784
   -35.5744 -35.5343 -35.5304 -35.5219   9.1822  11.6787  12.6334  13.6655
    14.0040  14.5688  14.8608  15.0346  15.4235  15.9625  16.1505  16.3033
    16.3233  16.7579  17.1452  17.5643  17.7380  18.1442  18.1864

          k = 0.0000 0.0000-1.0089 (  5138 PWs)   bands (ev):

   -70.6730 -69.4846 -69.4780 -36.7510 -36.7510 -36.7281 -35.6132 -35.5796
   -35.5796 -35.5277 -35.5277 -35.5208   9.1182  11.3808  13.2586  13.5559
    14.6757  14.6757  14.9540  14.9540  15.0527  15.1719  16.1937  16.6294
    16.6294  16.9584  17.2360  17.5325  17.5325  17.6300  18.1688

          k = 0.0000 0.2018 0.4035 (  5151 PWs)   bands (ev):

   -70.6745 -69.4866 -69.4745 -36.7428 -36.7424 -36.7364 -35.5916 -35.5859
   -35.5696 -35.5538 -35.5297 -35.5229   7.2540  12.3417  13.2563  13.8407
    13.9075  14.3268  14.4900  14.6892  14.8447  16.3981  16.6591  16.7013
    16.7253  16.8559  17.5703  17.6762  20.0072  20.0617  20.7306

          k =-0.1009 0.3027 0.5044 (  5153 PWs)   bands (ev):

   -70.6740 -69.4852 -69.4763 -36.7442 -36.7433 -36.7368 -35.5887 -35.5771
   -35.5668 -35.5573 -35.5372 -35.5249   7.8474  12.0092  13.1364  13.4390
    14.1225  14.4700  14.6129  14.8511  15.0408  16.1685  16.3974  16.5166
    16.6900  16.8023  17.4537  17.6232  18.8248  19.7568  20.2695

          k = 0.8071-0.6053-0.4035 (  5163 PWs)   bands (ev):

   -70.6736 -69.4834 -69.4786 -36.7455 -36.7429 -36.7380 -35.5863 -35.5754
   -35.5679 -35.5478 -35.5443 -35.5295   8.5167  11.5253  12.9057  13.2640
    14.2335  14.5813  14.5908  15.2069  15.3891  16.0141  16.1310  16.3984
    16.6057  16.7129  17.3775  17.4713  17.9475  19.6405  19.9307

          k = 0.7062-0.5044-0.3027 (  5164 PWs)   bands (ev):

   -70.6734 -69.4813 -69.4808 -36.7460 -36.7424 -36.7388 -35.5865 -35.5771
   -35.5622 -35.5512 -35.5399 -35.5338   8.8830  11.1920  12.8121  13.2496
    14.2865  14.5883  14.6037  15.4202  15.5601  15.9875  15.9969  16.3085
    16.5842  16.6135  17.3210  17.3849  17.6724  19.6404  19.7756

          k =-0.0000 0.2018 0.6053 (  5143 PWs)   bands (ev):

   -70.6738 -69.4853 -69.4764 -36.7464 -36.7455 -36.7336 -35.5883 -35.5812
[...]
   -34.0271 -33.7860 -33.7696 -33.7696   6.8819  13.3563  14.0256  14.0256
    15.2885  15.2885  15.9210  16.1785  16.1785  17.9148  18.0519  18.0519
    19.3194  19.3194  19.3760  19.3760  21.2475  22.2237  22.5622

          k =-0.3024 0.3024 0.3024 (  5015 PWs)   bands (ev):

   -67.9262 -67.9057 -67.7065 -34.1135 -34.1135 -34.1130 -34.0448 -34.0448
   -34.0220 -33.7916 -33.7651 -33.7651   7.5079  12.4813  14.0188  14.0188
    15.6445  15.6445  15.7342  16.1772  16.1772  17.6815  17.7249  17.7249
    19.1978  19.1978  19.3297  19.3297  20.1618  22.2827  22.5716

          k =-0.4033 0.4033 0.4033 (  5042 PWs)   bands (ev):

   -67.9200 -67.9088 -67.7095 -34.1211 -34.1211 -34.1039 -34.0410 -34.0410
   -34.0317 -33.7923 -33.7614 -33.7614   8.2401  11.5100  14.0363  14.0363
    15.7874  15.8936  15.8936  16.2579  16.2579  17.3625  17.4458  17.4458
    19.0439  19.0439  19.3023  19.3023  19.4183  22.3822  22.6037

          k = 0.5041-0.5041-0.5041 (  4988 PWs)   bands (ev):

   -67.9160 -67.9116 -67.7107 -34.1237 -34.1237 -34.0962 -34.0404 -34.0398
   -34.0398 -33.7917 -33.7601 -33.7601   8.6670  10.9869  14.0469  14.0469
    15.9059  15.9693  15.9693  16.3253  16.3253  17.1211  17.3342  17.3342
    18.9672  18.9672  19.2015  19.2949  19.2949  22.4131  22.6324

          k = 0.0000 0.0000 0.2016 (  5005 PWs)   bands (ev):

   -67.9359 -67.9020 -67.7004 -34.1021 -34.1021 -34.0769 -34.0648 -34.0493
   -34.0493 -33.7819 -33.7717 -33.7717   6.5241  13.7039  14.1794  14.1794
    14.9382  15.0188  16.0556  16.2438  16.2438  18.2245  18.2245  18.2944
    19.3545  19.3675  19.3770  19.4590  21.5578  22.4518  22.4518

          k =-0.1008 0.1008 0.3024 (  5006 PWs)   bands (ev):

   -67.9326 -67.9031 -67.7026 -34.1163 -34.1157 -34.0848 -34.0568 -34.0396
   -34.0314 -33.7897 -33.7688 -33.7680   6.8383  13.3169  14.1248  14.2070
    15.1592  15.2267  15.8311  16.2156  16.2469  17.9413  17.9865  18.1676
    19.2572  19.3379  19.3571  19.4437  21.3940  21.7799  22.1483

          k =-0.2016 0.2016 0.4033 (  5014 PWs)   bands (ev):

   -67.9273 -67.9050 -67.7060 -34.1260 -34.1221 -34.0980 -34.0471 -34.0339
   -34.0214 -33.7950 -33.7659 -33.7635   7.3890  12.7142  13.9449  14.1976
    15.4886  15.5003  15.6740  16.1674  16.2712  17.6376  17.6806  17.9996
    19.1855  19.2325  19.2740  19.3969  20.4922  21.5440  21.8723

          k =-0.3024 0.3024 0.5041 (  5026 PWs)   bands (ev):

   -67.9213 -67.9078 -67.7093 -34.1315 -34.1200 -34.1071 -34.0392 -34.0320
   -34.0270 -33.7942 -33.7637 -33.7601   8.0919  11.8636  13.8354  14.1752
    15.5450  15.7800  15.8836  16.2202  16.3717  17.3541  17.3969  17.7547
    19.0742  19.1209  19.1787  19.3255  19.6101  21.5457  21.7267

          k = 0.6049-0.6049-0.4033 (  5031 PWs)   bands (ev):

   -67.9161 -67.9111 -67.7111 -34.1311 -34.1239 -34.1026 -34.0420 -34.0337
   -34.0301 -33.7908 -33.7627 -33.7589   8.6772  11.1641  13.8282  14.1248
    15.6219  15.9222  15.9912  16.4346  16.4370  17.1948  17.2713  17.3865
    18.9726  18.9948  19.2166  19.2371  19.2809  21.5102  21.7351

          k = 0.5041-0.5041-0.3024 (  5035 PWs)   bands (ev):

   -67.9176 -67.9101 -67.7107 -34.1273 -34.1249 -34.1046 -34.0421 -34.0383
   -34.0250 -33.7906 -33.7623 -33.7604   8.5296  11.3421  13.8790  14.0458
    15.5920  15.9571  15.9596  16.2945  16.4986  17.2165  17.3812  17.3825
    18.9648  19.0697  19.1942  19.2816  19.3429  21.4971  21.8862

          k = 0.4033-0.4033-0.2016 (  5029 PWs)   bands (ev):

   -67.9232 -67.9068 -67.7083 -34.1258 -34.1139 -34.1137 -34.0456 -34.0354
   -34.0202 -33.7925 -33.7641 -33.7629   7.8495  12.1794  13.9658  13.9860
    15.4876  15.7849  15.8751  16.0839  16.3882  17.3473  17.6500  17.7376
    19.0976  19.1937  19.2193  19.3513  19.8788  21.5572  22.1139

          k = 0.3024-0.3024-0.1008 (  5009 PWs)   bands (ev):

   -67.9292 -67.9043 -67.7048 -34.1197 -34.1157 -34.0993 -34.0554 -34.0347
   -34.0227 -33.7908 -33.7686 -33.7654   7.1823  13.0028  13.9274  14.1499
    15.2879  15.5483  15.7579  16.0834  16.3022  17.6589  17.9349  17.9639
    19.2383  19.2523  19.3409  19.3996  20.9038  21.6810  22.3138

          k = 0.2016-0.2016 0.0000 (  5014 PWs)   bands (ev):

   -67.9340 -67.9027 -67.7017 -34.1083 -34.1073 -34.0856 -34.0655 -34.0402
   -34.0381 -33.7841 -33.7721 -33.7694   6.7049  13.5731  13.9636  14.2129
    15.0525  15.2098  15.9830  16.1493  16.2630  18.0277  18.0914  18.2162
    19.3354  19.3359  19.3880  19.4223  21.6010  22.0821  22.4657

          k = 0.0000 0.0000 0.4033 (  4985 PWs)   bands (ev):

   -67.9304 -67.9037 -67.7042 -34.1305 -34.1305 -34.0801 -34.0444 -34.0286
   -34.0286 -33.8006 -33.7643 -33.7643   7.0564  12.9689  14.3771  14.3771
    15.1815  15.2321  15.5563  16.2733  16.2733  17.8168  17.8168  18.1543
    19.0849  19.3134  19.3547  19.4705  20.9237  21.5425  21.5425

          k =-0.1008 0.1008 0.5041 (  5011 PWs)   bands (ev):

   -67.9262 -67.9051 -67.7070 -34.1420 -34.1404 -34.0863 -34.0343 -34.0216
   -34.0193 -33.8086 -33.7611 -33.7600   7.5121  12.5773  14.2332  14.4488
    15.2314  15.4021  15.4997  16.2475  16.3022  17.5839  17.5866  18.1300
    18.9373  19.2469  19.3018  19.4396  20.6134  20.6945  21.0695

          k =-0.2016 0.2016 0.6049 (  5031 PWs)   bands (ev):

   -67.9210 -67.9072 -67.7101 -34.1478 -34.1419 -34.0943 -34.0291 -34.0191
   -34.0189 -33.8063 -33.7608 -33.7568   8.1367  12.1066  13.7429  14.4334
    15.1667  15.7052  15.7608  16.2364  16.4423  17.3246  17.3518  18.0509
    18.8910  19.1095  19.1727  19.3522  19.7817  20.5269  20.8118

          k = 0.7057-0.7057-0.3024 (  5028 PWs)   bands (ev):

   -67.9161 -67.9100 -67.7123 -34.1470 -34.1395 -34.0962 -34.0430 -34.0210
   -34.0139 -33.7955 -33.7641 -33.7557   8.7427  11.5760  13.4053  14.3430
    15.1487  15.8887  16.0185  16.3814  16.6272  17.1333  17.2004  17.7192
    18.9064  18.9640  19.0852  19.2467  19.3894  20.4854  20.7575

          k = 0.6049-0.6049-0.2016 (  5023 PWs)   bands (ev):

   -67.9147 -67.9112 -67.7125 -34.1395 -34.1386 -34.0965 -34.0541 -34.0268
   -34.0086 -33.7860 -33.7687 -33.7574   8.8608  11.4950  13.3109  14.1974
    15.1757  15.9311  16.1409  16.5422  16.6126  17.1414  17.2042  17.4241
    18.8038  19.1195  19.1403  19.2526  19.3199  20.4780  20.8994

          k = 0.5041-0.5041-0.1008 (  5034 PWs)   bands (ev):

   -67.9192 -67.9084 -67.7108 -34.1366 -34.1267 -34.1080 -34.0451 -34.0359
   -34.0072 -33.7884 -33.7664 -33.7610   8.3497  12.0317  13.4546  14.0439
    15.2424  15.9485  16.0170  16.2434  16.5685  17.1039  17.4566  17.6578
    18.9057  19.1841  19.2248  19.3052  19.7215  20.5138  21.2654

          k = 0.4033-0.4033 0.0000 (  5024 PWs)   bands (ev):

   -67.9245 -67.9061 -67.7078 -34.1307 -34.1167 -34.1112 -34.0470 -34.0339
   -34.0127 -33.7927 -33.7653 -33.7638   7.7028  12.5825  13.8785  13.9392
    15.2779  15.7684  15.8837  15.9986  16.4485  17.2978  17.7418  17.8679
    19.0734  19.1908  19.3257  19.3712  20.5784  20.6780  21.7904

          k = 0.0000 0.0000 0.6049 (  5029 PWs)   bands (ev):

   -67.9233 -67.9058 -67.7092 -34.1552 -34.1552 -34.0847 -34.0192 -34.0126
   -34.0126 -33.8231 -33.7560 -33.7560   7.8608  12.2635  14.6585  14.6585
    14.9328  15.0122  15.6791  16.2739  16.2739  17.4954  17.4954  18.1832
    18.6645  19.1574  19.3389  19.4336  20.0906  20.4271  20.4271

          k =-0.1008 0.1008 0.7057 (  5032 PWs)   bands (ev):

   -67.9195 -67.9071 -67.7117 -34.1627 -34.1613 -34.0882 -34.0140 -34.0083
   -34.0079 -33.8261 -33.7542 -33.7529   8.3730  11.9821  14.0973  14.7306
    14.7800  15.3049  15.8935  16.2480  16.3603  17.3555  17.3804  18.2184
    18.5172  19.0423  19.2671  19.3557  19.7851  19.9211  20.0547

          k = 0.8065-0.8065-0.2016 (  5023 PWs)   bands (ev):

   -67.9158 -67.9089 -67.7137 -34.1629 -34.1594 -34.0886 -34.0322 -34.0091
   -34.0010 -33.8138 -33.7576 -33.7519   8.8979  11.8173  13.3128  14.6483
    14.6621  15.8118  15.9467  16.2987  16.6485  17.1482  17.2580  18.0230
    18.6002  18.8632  19.1571  19.2404  19.4519  19.8649  19.9569

          k = 0.7057-0.7057-0.1008 (  5041 PWs)   bands (ev):

   -67.9128 -67.9114 -67.7142 -34.1559 -34.1535 -34.0814 -34.0597 -34.0146
   -33.9974 -33.7945 -33.7664 -33.7534   9.1290  11.9150  12.7053  14.4530
    14.7230  15.9438  16.2202  16.4556  16.8340  16.9820  17.1744  17.6008
    18.7272  18.8521  19.1942  19.2727  19.3587  19.8608  20.0664

          k = 0.6049-0.6049 0.0000 (  5022 PWs)   bands (ev):

   -67.9150 -67.9103 -67.7131 -34.1460 -34.1428 -34.0903 -34.0620 -34.0241
   -33.9989 -33.7782 -33.7773 -33.7569   8.8669  12.0688  12.7477  14.2253
    14.9559  15.9298  16.3538  16.4938  16.5709  17.1057  17.1995  17.5060
    18.7299  19.0789  19.2736  19.2917  19.5155  19.9407  20.5120

          k = 0.0000 0.0000 0.8065 (  5025 PWs)   bands (ev):

   -67.9174 -67.9075 -67.7135 -34.1721 -34.1721 -34.0890 -34.0021 -34.0021
   -33.9988 -33.8406 -33.7498 -33.7498   8.7402  11.7412  14.4363  14.4541
    14.9351  14.9351  16.1847  16.1942  16.1942  17.4328  17.4328  18.1773
    18.3207  18.9610  19.2872  19.3262  19.5278  19.5278  19.7348

          k = 0.9073-0.9073-0.1008 (  5023 PWs)   bands (ev):

   -67.9153 -67.9083 -67.7148 -34.1741 -34.1732 -34.0894 -34.0103 -34.0012
   -33.9934 -33.8360 -33.7504 -33.7488   9.0953  11.6473  13.7948  14.2810
    14.9363  15.3976  16.0753  16.1948  16.5045  17.3562  17.3976  18.1569
    18.2670  18.8562  19.1968  19.2244  19.2959  19.4408  19.7043

          k = 0.8065-0.8065 0.0000 (  5048 PWs)   bands (ev):

   -67.9137 -67.9096 -67.7151 -34.1683 -34.1661 -34.0853 -34.0361 -34.0056
   -33.9926 -33.8161 -33.7568 -33.7501   9.2413  11.8447  12.9819  14.3816
    14.7374  15.9014  16.0065  16.3188  16.7239  17.1497  17.2755  17.9079
    18.4762  18.7876  19.1916  19.2200  19.3246  19.5701  19.6994

          k = 0.0000 0.0000-1.0081 (  4992 PWs)   bands (ev):

   -67.9150 -67.9081 -67.7152 -34.1781 -34.1781 -34.0907 -33.9985 -33.9985
   -33.9909 -33.8471 -33.7476 -33.7476   9.1944  11.5199  14.0640  14.2787
    15.0615  15.0615  16.1293  16.1293  16.4686  17.4914  17.4914  17.8996
    18.4217  18.8431  19.1445  19.1445  19.2185  19.3213  19.6946

          k = 0.0000 0.2016 0.4033 (  5003 PWs)   bands (ev):

   -67.9288 -67.9043 -67.7052 -34.1298 -34.1249 -34.0903 -34.0488 -34.0294
   -34.0224 -33.7972 -33.7657 -33.7640   7.2249  12.9120  14.0871  14.2511
    15.2398  15.4874  15.6150  16.1527  16.3223  17.6365  17.8140  18.0858
    19.1235  19.2751  19.3512  19.4218  21.1523  21.2307  21.3761

          k =-0.1008 0.3024 0.5041 (  5027 PWs)   bands (ev):

   -67.9236 -67.9063 -67.7084 -34.1394 -34.1258 -34.1017 -34.0386 -34.0317
   -34.0141 -33.7985 -33.7632 -33.7612   7.8165  12.3959  13.8604  14.1357
    15.3215  15.6653  15.8200  16.1051  16.4380  17.3192  17.5797  17.9691
    19.0122  19.1767  19.2844  19.3600  20.1647  20.9522  21.1246

          k = 0.8065-0.6049-0.4033 (  5044 PWs)   bands (ev):

   -67.9181 -67.9091 -67.7112 -34.1443 -34.1215 -34.1080 -34.0431 -34.0290
   -34.0141 -33.7926 -33.7649 -33.7582   8.4858  11.7219  13.5775  14.1560
    15.3158  15.8902  15.9865  16.2767  16.5902  17.1487  17.3109  17.6992
    18.9301  19.0984  19.1455  19.2766  19.4921  20.8323  20.9796

          k = 0.7057-0.5041-0.3024 (  5028 PWs)   bands (ev):

   -67.9145 -67.9116 -67.7122 -34.1456 -34.1220 -34.1047 -34.0514 -34.0240
   -34.0163 -33.7879 -33.7672 -33.7570   8.8524  11.3261  13.4972  14.1720
    15.3059  15.9699  16.0125  16.5648  16.5762  17.1579  17.1714  17.4416
    18.9075  18.9727  19.1410  19.2583  19.2975  20.8038  20.9167

          k =-0.0000 0.2016 0.6049 (  5029 PWs)   bands (ev):

   -67.9222 -67.9064 -67.7098 -34.1545 -34.1449 -34.0904 -34.0241 -34.0229
   -34.0092 -33.8135 -33.7583 -33.7569   8.0028  12.2504  14.1020  14.3027
    15.2122  15.4019  15.7662  16.1922  16.4198  17.3394  17.4664  18.1285
    18.7713  19.1486  19.2775  19.3918  20.1995  20.3277  20.3582

          k = 0.9073-0.7057-0.3024 (  5042 PWs)   bands (ev):

   -67.9177 -67.9084 -67.7123 -34.1622 -34.1399 -34.0953 -34.0387 -34.0134
   -34.0050 -33.8063 -33.7610 -33.7541   8.5924  11.9564  13.4817  14.2550
    15.0870  15.7664  15.9611  16.2077  16.6543  17.1396  17.2759  17.9840
    18.7306  19.0080  19.2165  19.2903  19.5858  20.1197  20.1845

          k = 0.8065-0.6049-0.2016 (  5034 PWs)   bands (ev):

   -67.9139 -67.9109 -67.7136 -34.1639 -34.1305 -34.0952 -34.0589 -34.0105
   -34.0036 -33.7918 -33.7689 -33.7533   9.0224  11.7437  13.0380  14.2151
    14.9900  15.9714  16.0805  16.4307  16.8273  17.0075  17.1398  17.6771
    18.8144  18.8650  19.0706  19.2752  19.4009  20.0368  20.1958

          k = 0.7057-0.5041-0.1008 (  5028 PWs)   bands (ev):

   -67.9147 -67.9104 -67.7132 -34.1601 -34.1216 -34.1027 -34.0608 -34.0171
   -34.0012 -33.7846 -33.7735 -33.7550   8.9139  11.8757  12.9765  14.1513
    15.0293  15.9600  16.1674  16.4189  16.7716  17.0588  17.1483  17.5984
    18.7551  19.0687  19.1155  19.3053  19.4347  20.0518  20.3340

          k = 0.6049-0.4033-0.0000 (  5027 PWs)   bands (ev):

   -67.9190 -67.9082 -67.7112 -34.1516 -34.1185 -34.1115 -34.0447 -34.0274
   -34.0040 -33.7941 -33.7654 -33.7584   8.3872  12.1495  13.3891  14.0772
    15.1822  15.8776  16.0816  16.1117  16.6446  17.0846  17.3857  17.8159
    18.8410  19.1510  19.2563  19.3130  19.8553  20.1755  20.6771

          k = 1.0081-0.8065-0.2016 (  5025 PWs)   bands (ev):

   -67.9166 -67.9081 -67.7137 -34.1729 -34.1595 -34.0894 -34.0234 -34.0019
   -33.9993 -33.8252 -33.7545 -33.7503   8.8290  11.8185  13.8136  14.1712
    15.0445  15.4794  16.0211  16.2009  16.5400  17.2835  17.2988  18.1811
    18.4123  18.9237  19.2654  19.2762  19.4270  19.7165  19.7704

          k = 0.9073-0.7057-0.1008 (  5039 PWs)   bands (ev):

   -67.9140 -67.9096 -67.7148 -34.1761 -34.1487 -34.0873 -34.0481 -34.0009
   -33.9951 -33.8102 -33.7608 -33.7497   9.1764  11.8927  13.0868  14.0247
    14.9882  15.8954  16.0333  16.2865  16.7572  17.1134  17.2259  17.9259
    18.5754  18.8018  19.0686  19.2074  19.4103  19.6528  19.7368

          k = 0.8065-0.6049 0.0000 (  5048 PWs)   bands (ev):

   -67.9120 -67.9118 -67.7146 -34.1715 -34.1343 -34.0778 -34.0775 -34.0068
   -33.9950 -33.7907 -33.7716 -33.7515   9.2022  12.3065  12.3655  14.1032
    14.9071  15.9877  16.2058  16.4111  16.9331  16.9383  17.1395  17.6351
    18.7216  18.8867  19.0538  19.2179  19.4539  19.7598  19.8340

          k = 0.0000 0.2016-1.0081 (  5032 PWs)   bands (ev):

   -67.9144 -67.9088 -67.7152 -34.1796 -34.1647 -34.0888 -34.0240 -33.9978
   -33.9917 -33.8292 -33.7533 -33.7480   9.2329  11.6829  13.6831  13.8643
    15.0826  15.5543  16.0919  16.1860  16.6098  17.2921  17.3555  18.1636
    18.2452  18.8178  19.0468  19.1996  19.3537  19.4206  19.6890

          k = 1.0081-0.6049-0.2016 (  5046 PWs)   bands (ev):

   -67.9144 -67.9099 -67.7141 -34.1735 -34.1249 -34.0992 -34.0611 -34.0039
   -33.9979 -33.7965 -33.7685 -33.7513   9.0348  12.0184  12.9996  13.9315
    15.0619  15.9576  16.1113  16.2422  16.8936  17.0445  17.1075  17.8107
    18.6994  18.9251  19.1342  19.2539  19.3948  19.8175  19.8637

          k = 0.9073-0.5041-0.1008 (  5040 PWs)   bands (ev):

   -67.9120 -67.9116 -67.7148 -34.1775 -34.1094 -34.1035 -34.0770 -33.9990
   -33.9970 -33.7832 -33.7802 -33.7501   9.2301  12.1885  12.6324  13.8024
    15.0517  16.0622  16.0901  16.3687  16.9350  16.9736  17.1063  17.7268
    18.7910  18.8019  19.0114  19.0915  19.5122  19.6868  19.8085

          k = 0.0000 0.4033-1.0081 (  5052 PWs)   bands (ev):

   -67.9127 -67.9105 -67.7152 -34.1819 -34.1278 -34.0858 -34.0760 -33.9959
   -33.9935 -33.7973 -33.7702 -33.7486   9.2984  12.1499  12.8546  13.5721
    15.1171  16.0076  16.0897  16.2938  16.8312  17.0070  17.2287  17.8473
    18.7553  18.7579  18.8451  19.0820  19.5746  19.5768  19.6605

     the Fermi energy is    17.9305 ev

!    total energy              =    -999.32777020 Ry
     Harris-Foulkes estimate   =    -999.32777020 Ry
     estimated scf accuracy    <          1.0E-10 Ry

     The total energy is the sum of the following terms:

     one-electron contribution =    -385.20295957 Ry
     hartree contribution      =     226.98271741 Ry
     xc contribution           =    -110.92694841 Ry
     ewald contribution        =    -501.72785083 Ry
     one-center paw contrib.   =    -228.45269781 Ry
     smearing contrib. (-TS)   =      -0.00003099 Ry

     total magnetization       =     5.11 Bohr mag/cell
     absolute magnetization    =     5.55 Bohr mag/cell

     convergence has been achieved in  14 iterations

     Forces acting on atoms (cartesian axes, Ry/au):

     atom    1 type  2   force =    -0.00000000    0.00000000    0.00000000
     atom    2 type  2   force =     0.00000000    0.00000000   -0.00000000
     atom    3 type  2   force =    -0.00000000    0.00000000    0.00000000
     atom    4 type  1   force =     0.00000000    0.00000000    0.00000000

     Total force =     0.000000     Total SCF correction =     0.000000


     Computing stress (Cartesian axis) and pressure

          total   stress  (Ry/bohr**3)                   (kbar)     P=        0.05
   0.00000032   0.00000000  -0.00000000            0.05        0.00       -0.00
   0.00000000   0.00000032   0.00000000            0.00        0.05        0.00
  -0.00000000   0.00000000   0.00000032           -0.00        0.00        0.05


     Writing output data file ./file.save/

     init_run     :     89.07s CPU     79.88s WALL (       2 calls)
     electrons    :   5418.98s CPU   3948.83s WALL (       4 calls)
     update_pot   :     38.13s CPU     38.35s WALL (       2 calls)
     forces       :     49.17s CPU     46.08s WALL (       4 calls)
     stress       :    135.60s CPU    118.10s WALL (       4 calls)

     Called by init_run:
     wfcinit      :     49.02s CPU     38.63s WALL (       2 calls)
     potinit      :     13.06s CPU     13.35s WALL (       2 calls)
     hinit0       :     25.69s CPU     26.19s WALL (       2 calls)

     Called by electrons:
     c_bands      :   4178.26s CPU   3012.51s WALL (      84 calls)
     sum_band     :   1010.94s CPU    695.21s WALL (      84 calls)
     v_of_rho     :     51.96s CPU     50.75s WALL (      88 calls)
     newd         :     37.31s CPU     50.38s WALL (      88 calls)
     PAW_pot      :    148.46s CPU    149.17s WALL (      90 calls)
     mix_rho      :      3.82s CPU      3.22s WALL (      84 calls)

     Called by c_bands:
     init_us_2    :     66.94s CPU     45.81s WALL (   16920 calls)
     cegterg      :   4005.48s CPU   2897.09s WALL (    7896 calls)

     Called by sum_band:
     sum_band:bec :      0.46s CPU      0.26s WALL (    8084 calls)
     addusdens    :    123.24s CPU     90.66s WALL (      84 calls)

     Called by *egterg:
     h_psi        :   3603.60s CPU   2666.79s WALL (   26472 calls)
     s_psi        :     72.02s CPU     40.39s WALL (   26472 calls)
     g_psi        :     12.17s CPU      7.15s WALL (   18388 calls)
     cdiaghg      :     74.23s CPU     50.39s WALL (   26096 calls)

     Called by h_psi:
     h_psi:calbec :     82.62s CPU     49.80s WALL (   26472 calls)
     vloc_psi     :   3427.63s CPU   2563.37s WALL (   26472 calls)
     add_vuspsi   :     76.15s CPU     42.20s WALL (   26472 calls)

     General routines
     calbec       :    117.66s CPU     70.22s WALL (   36436 calls)
     fft          :      5.99s CPU      5.88s WALL (    2354 calls)
     ffts         :      1.38s CPU      1.15s WALL (     344 calls)
     fftw         :   3794.36s CPU   2826.73s WALL ( 1466958 calls)
     interpolate  :      1.33s CPU      1.37s WALL (     176 calls)

     Parallel routines

     PWSCF        :      1h35m CPU      1h10m WALL


   This run was terminated on:  18:34:52  21Nov2022            

=------------------------------------------------------------------------------=
   JOB DONE.
=------------------------------------------------------------------------------=
