
     Program PWSCF v.7.1 starts on  1Nov2022 at 20:29:45 

     This program is part of the open-source Quantum ESPRESSO suite
     for quantum simulation of materials; please cite
         "P. Giannozzi et al., J. Phys.:Condens. Matter 21 395502 (2009);
         "P. Giannozzi et al., J. Phys.:Condens. Matter 29 465901 (2017);
         "P. Giannozzi et al., J. Chem. Phys. 152 154105 (2020);
          URL http://www.quantum-espresso.org", 
     in publications or presentations arising from this work. More details at
     http://www.quantum-espresso.org/quote

     Parallel version (MPI), running on     4 processors

     MPI processes distributed on     1 nodes
     14087 MiB available memory on the printing compute node when the environment starts

     Reading input from Fe3Si.in

     Current dimensions of program PWSCF are:
     Max number of different atomic species (ntypx) = 10
     Max number of k-points (npk) =  40000
     Max angular momentum in pseudopotentials (lmaxx) =  4
     Message from routine volume:
     axis vectors are left-handed

     File ./file.update deleted, as requested
     file Fe.pbe-spn-kjpaw_psl.0.2.1.UPF: wavefunction(s)  3D renormalized

     IMPORTANT: XC functional enforced from input :
     Exchange-correlation= PBE
                           (   1   4   3   4   0   0   0)
     Any further DFT definition will be discarded
     Please, verify this is what you really want

     Message from routine setup:
     using ibrav=0 with symmetry is DISCOURAGED, use correct ibrav instead

     R & G space division:  proc/nbgrp/npool/nimage =       4
     Subspace diagonalization in iterative solution of the eigenvalue problem:
     a serial algorithm will be used


     Parallelization info
     --------------------
     sticks:   dense  smooth     PW     G-vecs:    dense   smooth      PW
     Min         421     211     63                11477     4088     682
     Max         423     212     64                11478     4091     686
     Sum        1687     847    253                45911    16361    2733

     Using Slab Decomposition



     bravais-lattice index     =            0
     lattice parameter (alat)  =      10.6864  a.u.
     unit-cell volume          =     305.0945 (a.u.)^3
     number of atoms/cell      =            4
     number of atomic types    =            2
     number of electrons       =        52.00
     number of Kohn-Sham states=           31
     kinetic-energy cutoff     =      54.0000  Ry
     charge density cutoff     =     432.0000  Ry
     scf convergence threshold =      1.0E-08
     mixing beta               =       0.7000
     number of iterations used =            8  plain     mixing
     energy convergence thresh.=      1.0E-04
     force convergence thresh. =      1.0E-03
     press convergence thresh. =      5.0E-01
     Exchange-correlation= PBE
                           (   1   4   3   4   0   0   0)
     nstep                     =           50


     celldm(1)=  10.686401  celldm(2)=   0.000000  celldm(3)=   0.000000
     celldm(4)=   0.000000  celldm(5)=   0.000000  celldm(6)=   0.000000

     crystal axes: (cart. coord. in units of alat)
               a(1) = (   0.500000   0.500000   0.000000 )  
               a(2) = (   0.500000   0.000000   0.500000 )  
               a(3) = (   0.000000   0.500000   0.500000 )  

     reciprocal axes: (cart. coord. in units 2 pi/alat)
               b(1) = (  1.000000  1.000000 -1.000000 )  
               b(2) = (  1.000000 -1.000000  1.000000 )  
               b(3) = ( -1.000000  1.000000  1.000000 )  


     PseudoPot. # 1 for Si read from file:
     ./Si.pbe-n-rrkjus_psl.1.0.0.UPF
     MD5 check sum: 0b0bb1205258b0d07b9f9672cf965d36
     Pseudo is Ultrasoft + core correction, Zval =  4.0
     Generated using "atomic" code by A. Dal Corso  v.5.1
     Using radial grid of 1141 points,  6 beta functions with: 
                l(1) =   0
                l(2) =   0
                l(3) =   1
                l(4) =   1
                l(5) =   2
                l(6) =   2
     Q(r) pseudized with 0 coefficients 


     PseudoPot. # 2 for Fe read from file:
     ./Fe.pbe-spn-kjpaw_psl.0.2.1.UPF
     MD5 check sum: e86618425769142926afa95317d90200
     Pseudo is Projector augmented-wave + core cor, Zval = 16.0
     Generated using "atomic" code by A. Dal Corso  v.5.0.99 svn rev. 10869
     Shape of augmentation charge: PSQ
     Using radial grid of 1191 points,  6 beta functions with: 
                l(1) =   0
                l(2) =   0
                l(3) =   1
                l(4) =   1
                l(5) =   2
                l(6) =   2
     Q(r) pseudized with 0 coefficients 


     atomic species   valence    mass     pseudopotential
        Si             4.00    28.08500     Si( 1.00)
        Fe            16.00    55.84500     Fe( 1.00)

     Starting magnetic structure 
     atomic species   magnetization
        Si           1.000
        Fe           1.000

     48 Sym. Ops., with inversion, found



   Cartesian axes

     site n.     atom                  positions (alat units)
         1           Fe  tau(   1) = (   0.5000000   0.5000000   0.5000000  )
         2           Fe  tau(   2) = (   0.2500000   0.2500000   0.2500000  )
         3           Fe  tau(   3) = (   0.7500000   0.7500000   0.7500000  )
         4           Si  tau(   4) = (   0.0000000   0.0000000   0.0000000  )

     number of k points=    10  Marzari-Vanderbilt smearing, width (Ry)=  0.0050
                       cart. coord. in units 2pi/alat
        k(    1) = (   0.0000000   0.0000000   0.0000000), wk =   0.0080000
        k(    2) = (  -0.2000000   0.2000000   0.2000000), wk =   0.0640000
        k(    3) = (  -0.4000000   0.4000000   0.4000000), wk =   0.0640000
        k(    4) = (   0.0000000   0.0000000   0.4000000), wk =   0.0480000
        k(    5) = (  -0.2000000   0.2000000   0.6000000), wk =   0.1920000
        k(    6) = (   0.6000000  -0.6000000  -0.2000000), wk =   0.1920000
        k(    7) = (   0.4000000  -0.4000000   0.0000000), wk =   0.0960000
        k(    8) = (   0.0000000   0.0000000   0.8000000), wk =   0.0480000
        k(    9) = (   0.8000000  -0.8000000   0.0000000), wk =   0.0960000
        k(   10) = (   1.0000000  -0.6000000  -0.2000000), wk =   0.1920000

     Dense  grid:    45911 G-vectors     FFT dimensions: (  50,  50,  50)

     Smooth grid:    16361 G-vectors     FFT dimensions: (  36,  36,  36)

     Estimated max dynamical RAM per process >      59.82 MB

     Estimated total dynamical RAM >     239.26 MB

     Check: negative core charge=   -0.000060
     Generating pointlists ...
     new r_m :   0.1786 (alat units)  1.9088 (a.u.) for type    1
     new r_m :   0.1786 (alat units)  1.9088 (a.u.) for type    2

     Initial potential from superposition of free atoms

     starting charge      51.9981, renormalised to      52.0000
     Starting wfcs are   43 randomized atomic wfcs
     Checking if some PAW data can be deallocated... 

     total cpu time spent up to now is        2.4 secs

     per-process dynamical memory:    59.5 Mb

     Self-consistent Calculation

     iteration #  1     ecut=    54.00 Ry     beta= 0.70
     Davidson diagonalization with overlap
     ethr =  1.00E-02,  avg # of iterations =  2.9

     negative rho (up, down):  0.000E+00 1.868E-04

     total cpu time spent up to now is        3.9 secs

     total energy              =    -996.81047642 Ry
     estimated scf accuracy    <      12.75238108 Ry

     total magnetization       =    10.00 Bohr mag/cell
     absolute magnetization    =    13.60 Bohr mag/cell

     iteration #  2     ecut=    54.00 Ry     beta= 0.70
     Davidson diagonalization with overlap
     ethr =  1.00E-02,  avg # of iterations =  2.9

     negative rho (up, down):  0.000E+00 3.228E-05

     total cpu time spent up to now is        5.5 secs

     total energy              =    -996.90344888 Ry
     estimated scf accuracy    <       6.57022203 Ry

     total magnetization       =     7.68 Bohr mag/cell
     absolute magnetization    =     8.69 Bohr mag/cell

     iteration #  3     ecut=    54.00 Ry     beta= 0.70
     Davidson diagonalization with overlap
     ethr =  1.00E-02,  avg # of iterations =  4.1

     negative rho (up, down):  0.000E+00 5.218E-05

     total cpu time spent up to now is        7.1 secs

     total energy              =    -995.95080538 Ry
     estimated scf accuracy    <      17.90493242 Ry

     total magnetization       =     4.08 Bohr mag/cell
     absolute magnetization    =     4.79 Bohr mag/cell

     iteration #  4     ecut=    54.00 Ry     beta= 0.70
     Davidson diagonalization with overlap
     ethr =  1.00E-02,  avg # of iterations =  3.7

     total cpu time spent up to now is        8.8 secs

     total energy              =    -997.37940008 Ry
     estimated scf accuracy    <      31.02475746 Ry

     total magnetization       =     3.11 Bohr mag/cell
     absolute magnetization    =     3.32 Bohr mag/cell

     iteration #  5     ecut=    54.00 Ry     beta= 0.70
     Davidson diagonalization with overlap
     ethr =  1.00E-02,  avg # of iterations =  3.2

     total cpu time spent up to now is       10.3 secs

     total energy              =    -999.11565681 Ry
     estimated scf accuracy    <       0.43717421 Ry

     total magnetization       =     3.56 Bohr mag/cell
     absolute magnetization    =     4.02 Bohr mag/cell

     iteration #  6     ecut=    54.00 Ry     beta= 0.70
     Davidson diagonalization with overlap
     ethr =  8.41E-04,  avg # of iterations =  4.3

     total cpu time spent up to now is       12.0 secs

     total energy              =    -999.13913508 Ry
     estimated scf accuracy    <       1.31537787 Ry

     total magnetization       =     4.11 Bohr mag/cell
     absolute magnetization    =     4.59 Bohr mag/cell

     iteration #  7     ecut=    54.00 Ry     beta= 0.70
     Davidson diagonalization with overlap
     ethr =  8.41E-04,  avg # of iterations =  2.0

     negative rho (up, down):  0.000E+00 1.063E-05

     total cpu time spent up to now is       13.3 secs

     total energy              =    -999.22507081 Ry
     estimated scf accuracy    <       0.66713233 Ry

     total magnetization       =     5.04 Bohr mag/cell
     absolute magnetization    =     5.31 Bohr mag/cell

     iteration #  8     ecut=    54.00 Ry     beta= 0.70
     Davidson diagonalization with overlap
     ethr =  8.41E-04,  avg # of iterations =  1.4

     negative rho (up, down):  0.000E+00 5.569E-06

     total cpu time spent up to now is       14.6 secs

     total energy              =    -999.28865106 Ry
     estimated scf accuracy    <       0.09493192 Ry

     total magnetization       =     5.40 Bohr mag/cell
     absolute magnetization    =     5.78 Bohr mag/cell

     iteration #  9     ecut=    54.00 Ry     beta= 0.70
     Davidson diagonalization with overlap
     ethr =  1.83E-04,  avg # of iterations =  1.2

     negative rho (up, down):  0.000E+00 6.754E-05

     total cpu time spent up to now is       15.9 secs

     total energy              =    -999.28811368 Ry
     estimated scf accuracy    <       0.09882416 Ry

     total magnetization       =     5.39 Bohr mag/cell
     absolute magnetization    =     5.77 Bohr mag/cell

     iteration # 10     ecut=    54.00 Ry     beta= 0.70
     Davidson diagonalization with overlap
     ethr =  1.83E-04,  avg # of iterations =  1.8

     negative rho (up, down):  0.000E+00 1.095E-04

     total cpu time spent up to now is       17.2 secs

     total energy              =    -999.29577682 Ry
     estimated scf accuracy    <       0.01311980 Ry

     total magnetization       =     5.54 Bohr mag/cell
     absolute magnetization    =     5.94 Bohr mag/cell

     iteration # 11     ecut=    54.00 Ry     beta= 0.70
     Davidson diagonalization with overlap
     ethr =  2.52E-05,  avg # of iterations =  3.2

     negative rho (up, down):  0.000E+00 9.939E-05

     total cpu time spent up to now is       18.6 secs

     total energy              =    -999.29905514 Ry
     estimated scf accuracy    <       0.01750585 Ry

     total magnetization       =     5.49 Bohr mag/cell
     absolute magnetization    =     5.96 Bohr mag/cell

     iteration # 12     ecut=    54.00 Ry     beta= 0.70
     Davidson diagonalization with overlap
     ethr =  2.52E-05,  avg # of iterations =  1.1

     negative rho (up, down):  0.000E+00 1.445E-04

     total cpu time spent up to now is       19.9 secs

     total energy              =    -999.29732176 Ry
     estimated scf accuracy    <       0.03744932 Ry

     total magnetization       =     5.47 Bohr mag/cell
     absolute magnetization    =     5.94 Bohr mag/cell

     iteration # 13     ecut=    54.00 Ry     beta= 0.70
     Davidson diagonalization with overlap
     ethr =  2.52E-05,  avg # of iterations =  1.6

     negative rho (up, down):  0.000E+00 1.463E-04

     total cpu time spent up to now is       21.3 secs

     total energy              =    -999.29856334 Ry
     estimated scf accuracy    <       0.01727564 Ry

     total magnetization       =     5.28 Bohr mag/cell
     absolute magnetization    =     5.81 Bohr mag/cell

     iteration # 14     ecut=    54.00 Ry     beta= 0.70
     Davidson diagonalization with overlap
     ethr =  2.52E-05,  avg # of iterations =  1.0

     negative rho (up, down):  0.000E+00 1.460E-04

     total cpu time spent up to now is       22.5 secs

     total energy              =    -999.29893598 Ry
     estimated scf accuracy    <       0.01227339 Ry

     total magnetization       =     5.33 Bohr mag/cell
     absolute magnetization    =     5.85 Bohr mag/cell

     iteration # 15     ecut=    54.00 Ry     beta= 0.70
     Davidson diagonalization with overlap
     ethr =  2.36E-05,  avg # of iterations =  1.0

     negative rho (up, down):  0.000E+00 1.308E-04

     total cpu time spent up to now is       23.8 secs

     total energy              =    -999.29844806 Ry
     estimated scf accuracy    <       0.01392933 Ry

     total magnetization       =     5.22 Bohr mag/cell
     absolute magnetization    =     5.76 Bohr mag/cell

     iteration # 16     ecut=    54.00 Ry     beta= 0.70
     Davidson diagonalization with overlap
     ethr =  2.36E-05,  avg # of iterations =  1.0

     negative rho (up, down):  0.000E+00 1.587E-04

     total cpu time spent up to now is       25.0 secs

     total energy              =    -999.29614818 Ry
     estimated scf accuracy    <       0.01092449 Ry

     total magnetization       =     5.25 Bohr mag/cell
     absolute magnetization    =     5.77 Bohr mag/cell

     iteration # 17     ecut=    54.00 Ry     beta= 0.70
     Davidson diagonalization with overlap
     ethr =  2.10E-05,  avg # of iterations =  1.1

     negative rho (up, down):  0.000E+00 1.408E-04

     total cpu time spent up to now is       26.2 secs

     total energy              =    -999.29285702 Ry
     estimated scf accuracy    <       0.00873688 Ry

     total magnetization       =     5.63 Bohr mag/cell
     absolute magnetization    =     6.12 Bohr mag/cell

     iteration # 18     ecut=    54.00 Ry     beta= 0.70
     Davidson diagonalization with overlap
     ethr =  1.68E-05,  avg # of iterations =  2.1

     negative rho (up, down):  0.000E+00 1.296E-04

     total cpu time spent up to now is       27.6 secs

     total energy              =    -999.29540256 Ry
     estimated scf accuracy    <       0.00260209 Ry

     total magnetization       =     6.02 Bohr mag/cell
     absolute magnetization    =     6.49 Bohr mag/cell

     iteration # 19     ecut=    54.00 Ry     beta= 0.70
     Davidson diagonalization with overlap
     ethr =  5.00E-06,  avg # of iterations =  2.6

     negative rho (up, down):  0.000E+00 1.311E-04

     total cpu time spent up to now is       29.0 secs

     total energy              =    -999.29739383 Ry
     estimated scf accuracy    <       0.00068649 Ry

     total magnetization       =     5.64 Bohr mag/cell
     absolute magnetization    =     6.11 Bohr mag/cell

     iteration # 20     ecut=    54.00 Ry     beta= 0.70
     Davidson diagonalization with overlap
     ethr =  1.32E-06,  avg # of iterations =  3.5

     negative rho (up, down):  0.000E+00 1.314E-04

     total cpu time spent up to now is       30.6 secs

     total energy              =    -999.29751215 Ry
     estimated scf accuracy    <       0.00119807 Ry

     total magnetization       =     5.28 Bohr mag/cell
     absolute magnetization    =     5.77 Bohr mag/cell

     iteration # 21     ecut=    54.00 Ry     beta= 0.70
     Davidson diagonalization with overlap
     ethr =  1.32E-06,  avg # of iterations =  3.8

     negative rho (up, down):  0.000E+00 1.346E-04

     total cpu time spent up to now is       32.2 secs

     total energy              =    -999.29545869 Ry
     estimated scf accuracy    <       0.00220257 Ry

     total magnetization       =     5.09 Bohr mag/cell
     absolute magnetization    =     5.52 Bohr mag/cell

     iteration # 22     ecut=    54.00 Ry     beta= 0.70
     Davidson diagonalization with overlap
     ethr =  1.32E-06,  avg # of iterations =  4.0

     negative rho (up, down):  0.000E+00 1.333E-04

     total cpu time spent up to now is       33.9 secs

     total energy              =    -999.29611585 Ry
     estimated scf accuracy    <       0.00380577 Ry

     total magnetization       =     4.84 Bohr mag/cell
     absolute magnetization    =     5.20 Bohr mag/cell

     iteration # 23     ecut=    54.00 Ry     beta= 0.70
     Davidson diagonalization with overlap
     ethr =  1.32E-06,  avg # of iterations =  4.2

     negative rho (up, down):  0.000E+00 1.370E-04

     total cpu time spent up to now is       35.6 secs

     total energy              =    -999.29972467 Ry
     estimated scf accuracy    <       0.00069536 Ry

     total magnetization       =     5.10 Bohr mag/cell
     absolute magnetization    =     5.56 Bohr mag/cell

     iteration # 24     ecut=    54.00 Ry     beta= 0.70
     Davidson diagonalization with overlap
     ethr =  1.32E-06,  avg # of iterations =  1.2

     negative rho (up, down):  0.000E+00 1.366E-04

     total cpu time spent up to now is       36.8 secs

     total energy              =    -999.29970405 Ry
     estimated scf accuracy    <       0.00019746 Ry

     total magnetization       =     5.10 Bohr mag/cell
     absolute magnetization    =     5.55 Bohr mag/cell

     iteration # 25     ecut=    54.00 Ry     beta= 0.70
     Davidson diagonalization with overlap
     ethr =  3.80E-07,  avg # of iterations =  1.8

     negative rho (up, down):  0.000E+00 1.374E-04

     total cpu time spent up to now is       38.2 secs

     total energy              =    -999.29976139 Ry
     estimated scf accuracy    <       0.00013070 Ry

     total magnetization       =     5.10 Bohr mag/cell
     absolute magnetization    =     5.56 Bohr mag/cell

     iteration # 26     ecut=    54.00 Ry     beta= 0.70
     Davidson diagonalization with overlap
     ethr =  2.51E-07,  avg # of iterations =  1.1

     negative rho (up, down):  0.000E+00 1.372E-04

     total cpu time spent up to now is       39.4 secs

     total energy              =    -999.29977141 Ry
     estimated scf accuracy    <       0.00004955 Ry

     total magnetization       =     5.10 Bohr mag/cell
     absolute magnetization    =     5.55 Bohr mag/cell

     iteration # 27     ecut=    54.00 Ry     beta= 0.70
     Davidson diagonalization with overlap
     ethr =  9.53E-08,  avg # of iterations =  1.1

     negative rho (up, down):  0.000E+00 1.371E-04

     total cpu time spent up to now is       40.7 secs

     total energy              =    -999.29977155 Ry
     estimated scf accuracy    <       0.00005970 Ry

     total magnetization       =     5.10 Bohr mag/cell
     absolute magnetization    =     5.55 Bohr mag/cell

     iteration # 28     ecut=    54.00 Ry     beta= 0.70
     Davidson diagonalization with overlap
     ethr =  9.53E-08,  avg # of iterations =  1.0

     negative rho (up, down):  0.000E+00 1.370E-04

     total cpu time spent up to now is       41.9 secs

     total energy              =    -999.29976552 Ry
     estimated scf accuracy    <       0.00006091 Ry

     total magnetization       =     5.10 Bohr mag/cell
     absolute magnetization    =     5.55 Bohr mag/cell

     iteration # 29     ecut=    54.00 Ry     beta= 0.70
     Davidson diagonalization with overlap
     ethr =  9.53E-08,  avg # of iterations =  1.9

     negative rho (up, down):  0.000E+00 1.378E-04

     total cpu time spent up to now is       43.3 secs

     total energy              =    -999.29970312 Ry
     estimated scf accuracy    <       0.00007882 Ry

     total magnetization       =     5.10 Bohr mag/cell
     absolute magnetization    =     5.54 Bohr mag/cell

     iteration # 30     ecut=    54.00 Ry     beta= 0.70
     Davidson diagonalization with overlap
     ethr =  9.53E-08,  avg # of iterations =  2.6

     negative rho (up, down):  0.000E+00 1.388E-04

     total cpu time spent up to now is       44.7 secs

     total energy              =    -999.29976216 Ry
     estimated scf accuracy    <       0.00013227 Ry

     total magnetization       =     5.09 Bohr mag/cell
     absolute magnetization    =     5.53 Bohr mag/cell

     iteration # 31     ecut=    54.00 Ry     beta= 0.70
     Davidson diagonalization with overlap
     ethr =  9.53E-08,  avg # of iterations =  1.4

     negative rho (up, down):  0.000E+00 1.399E-04

     total cpu time spent up to now is       46.0 secs

     total energy              =    -999.29978255 Ry
     estimated scf accuracy    <       0.00005927 Ry

     total magnetization       =     5.10 Bohr mag/cell
     absolute magnetization    =     5.54 Bohr mag/cell

     iteration # 32     ecut=    54.00 Ry     beta= 0.70
     Davidson diagonalization with overlap
     ethr =  9.53E-08,  avg # of iterations =  2.1

     negative rho (up, down):  0.000E+00 1.399E-04

     total cpu time spent up to now is       47.4 secs

     total energy              =    -999.29978707 Ry
     estimated scf accuracy    <       0.00000525 Ry

     total magnetization       =     5.10 Bohr mag/cell
     absolute magnetization    =     5.54 Bohr mag/cell

     iteration # 33     ecut=    54.00 Ry     beta= 0.70
     Davidson diagonalization with overlap
     ethr =  1.01E-08,  avg # of iterations =  3.0

     negative rho (up, down):  0.000E+00 1.401E-04

     total cpu time spent up to now is       48.8 secs

     total energy              =    -999.29978784 Ry
     estimated scf accuracy    <       0.00000208 Ry

     total magnetization       =     5.10 Bohr mag/cell
     absolute magnetization    =     5.55 Bohr mag/cell

     iteration # 34     ecut=    54.00 Ry     beta= 0.70
     Davidson diagonalization with overlap
     ethr =  4.00E-09,  avg # of iterations =  1.8

     negative rho (up, down):  0.000E+00 1.401E-04

     total cpu time spent up to now is       50.1 secs

     total energy              =    -999.29978809 Ry
     estimated scf accuracy    <       0.00000110 Ry

     total magnetization       =     5.10 Bohr mag/cell
     absolute magnetization    =     5.55 Bohr mag/cell

     iteration # 35     ecut=    54.00 Ry     beta= 0.70
     Davidson diagonalization with overlap
     ethr =  2.12E-09,  avg # of iterations =  1.5

     negative rho (up, down):  0.000E+00 1.400E-04

     total cpu time spent up to now is       51.4 secs

     total energy              =    -999.29978814 Ry
     estimated scf accuracy    <       0.00000087 Ry

     total magnetization       =     5.10 Bohr mag/cell
     absolute magnetization    =     5.55 Bohr mag/cell

     iteration # 36     ecut=    54.00 Ry     beta= 0.70
     Davidson diagonalization with overlap
     ethr =  1.67E-09,  avg # of iterations =  1.2

     negative rho (up, down):  0.000E+00 1.398E-04

     total cpu time spent up to now is       52.6 secs

     total energy              =    -999.29978835 Ry
     estimated scf accuracy    <       0.00000132 Ry

     total magnetization       =     5.10 Bohr mag/cell
     absolute magnetization    =     5.55 Bohr mag/cell

     iteration # 37     ecut=    54.00 Ry     beta= 0.70
     Davidson diagonalization with overlap
     ethr =  1.67E-09,  avg # of iterations =  4.0

     negative rho (up, down):  0.000E+00 1.396E-04

     total cpu time spent up to now is       54.2 secs

     total energy              =    -999.29978875 Ry
     estimated scf accuracy    <       0.00000036 Ry

     total magnetization       =     5.10 Bohr mag/cell
     absolute magnetization    =     5.55 Bohr mag/cell

     iteration # 38     ecut=    54.00 Ry     beta= 0.70
     Davidson diagonalization with overlap
     ethr =  6.84E-10,  avg # of iterations =  2.2

     negative rho (up, down):  0.000E+00 1.396E-04

     total cpu time spent up to now is       55.6 secs

     total energy              =    -999.29978881 Ry
     estimated scf accuracy    <       0.00000013 Ry

     total magnetization       =     5.10 Bohr mag/cell
     absolute magnetization    =     5.55 Bohr mag/cell

     iteration # 39     ecut=    54.00 Ry     beta= 0.70
     Davidson diagonalization with overlap
     ethr =  2.47E-10,  avg # of iterations =  2.0

     negative rho (up, down):  0.000E+00 1.397E-04

     total cpu time spent up to now is       57.0 secs

     total energy              =    -999.29978884 Ry
     estimated scf accuracy    <       0.00000002 Ry

     total magnetization       =     5.10 Bohr mag/cell
     absolute magnetization    =     5.55 Bohr mag/cell

     iteration # 40     ecut=    54.00 Ry     beta= 0.70
     Davidson diagonalization with overlap
     ethr =  4.24E-11,  avg # of iterations =  3.0

     negative rho (up, down):  0.000E+00 1.397E-04

     Magnetic moment per site  (integrated on atomic sphere of radius R)
     atom   1 (R=0.179)  charge= 14.3770  magn=  2.5664
     atom   2 (R=0.179)  charge= 14.4825  magn=  1.3526
     atom   3 (R=0.179)  charge= 14.4825  magn=  1.3526
     atom   4 (R=0.179)  charge=  2.0485  magn= -0.0642

     total cpu time spent up to now is       58.5 secs

     End of self-consistent calculation

 ------ SPIN UP ------------


          k = 0.0000 0.0000 0.0000 (  2085 PWs)   bands (ev):

   -71.2267 -70.0185 -70.0046 -37.2794 -37.2794 -37.2794 -36.1155 -36.1155
   -36.1155 -36.0491 -36.0491 -36.0491   5.9900  12.9203  12.9203  13.1745
    13.1745  13.1745  14.2294  14.2294  14.2294  16.1537  16.1537  16.7348
    16.7348  16.7348  17.1100  17.1100  20.8977  21.5196  21.5196

          k =-0.2000 0.2000 0.2000 (  2028 PWs)   bands (ev):

   -71.2255 -70.0172 -70.0053 -37.2810 -37.2810 -37.2793 -36.1087 -36.1087
   -36.1052 -36.0609 -36.0544 -36.0544   6.5256  12.5924  12.6775  12.6775
    13.7770  13.7770  14.0624  14.2230  14.2230  16.0836  16.0836  16.2986
    16.4139  16.4139  17.0684  17.0684  19.3993  21.1598  21.1598

          k =-0.4000 0.4000 0.4000 (  2039 PWs)   bands (ev):

   -71.2248 -70.0142 -70.0093 -37.2835 -37.2835 -37.2789 -36.0930 -36.0930
   -36.0897 -36.0790 -36.0679 -36.0679   7.8706  10.9519  12.6393  12.6393
    14.0347  14.0520  14.0520  14.7556  14.7556  15.7640  15.7640  15.9435
    16.1501  16.1501  16.7688  16.7688  17.3083  20.9531  20.9531

          k = 0.0000 0.0000 0.4000 (  2037 PWs)   bands (ev):

   -71.2254 -70.0171 -70.0057 -37.2829 -37.2829 -37.2766 -36.1116 -36.1116
   -36.0920 -36.0771 -36.0497 -36.0497   6.6963  11.8915  13.2492  13.4747
    13.4747  13.6721  13.7951  14.3227  14.3227  15.8844  16.1691  16.2304
    16.2304  16.3625  17.0726  17.0957  19.5931  19.8475  19.8475

          k =-0.2000 0.2000 0.6000 (  2056 PWs)   bands (ev):

   -71.2248 -70.0154 -70.0085 -37.2856 -37.2846 -37.2763 -36.1049 -36.1025
   -36.0992 -36.0709 -36.0564 -36.0560   7.7537  11.3251  12.7060  13.1378
    13.6895  14.0037  14.2314  14.3965  14.7042  15.5706  15.7308  15.9633
    16.0198  16.3282  16.8906  16.9147  17.7890  18.8325  19.0486

          k = 0.6000-0.6000-0.2000 (  2048 PWs)   bands (ev):

   -71.2245 -70.0126 -70.0115 -37.2853 -37.2830 -37.2796 -36.1110 -36.0959
   -36.0867 -36.0726 -36.0683 -36.0549   8.4576  10.9255  12.3212  12.8194
    13.7440  14.0332  14.2546  14.8883  15.1210  15.4717  15.4948  15.7301
    16.0059  16.0092  16.8905  16.9008  17.1004  18.5726  19.2152

          k = 0.4000-0.4000 0.0000 (  2027 PWs)   bands (ev):

   -71.2248 -70.0157 -70.0074 -37.2828 -37.2824 -37.2796 -36.1112 -36.0940
   -36.0865 -36.0815 -36.0678 -36.0496   7.3332  11.7807  12.5392  13.0889
    13.5559  14.0421  14.0671  14.4332  14.4726  15.6805  15.9535  15.9892
    16.1393  16.2448  16.9036  17.1223  18.6980  18.7553  20.3572

          k = 0.0000 0.0000 0.8000 (  2048 PWs)   bands (ev):

   -71.2244 -70.0153 -70.0088 -37.2886 -37.2886 -37.2717 -36.1225 -36.1036
   -36.1036 -36.0536 -36.0525 -36.0525   8.3056  11.0114  12.9715  13.4667
    14.0619  14.0619  14.0992  14.4998  14.4998  15.1304  15.7216  15.9030
    15.9030  16.3392  16.7871  17.0728  17.5476  17.5476  17.7430

          k = 0.8000-0.8000 0.0000 (  2051 PWs)   bands (ev):

   -71.2242 -70.0139 -70.0105 -37.2884 -37.2872 -37.2740 -36.1271 -36.1006
   -36.0971 -36.0592 -36.0560 -36.0481   8.7564  11.2631  12.2017  13.2207
    13.5430  14.0994  14.3764  14.5470  14.9516  15.4342  15.6312  15.7455
    15.8152  16.2343  16.5891  16.9941  17.1615  17.5717  17.6018

          k = 1.0000-0.6000-0.2000 (  2042 PWs)   bands (ev):

   -71.2242 -70.0134 -70.0107 -37.2885 -37.2829 -37.2776 -36.1207 -36.1052
   -36.0864 -36.0705 -36.0551 -36.0507   8.5917  11.3301  12.2179  12.9914
    13.5381  14.2118  14.3886  14.4467  15.0951  15.2902  15.4496  15.8267
    16.0013  16.1356  16.6912  17.1308  17.1932  17.7242  17.9038

 ------ SPIN DOWN ----------


          k = 0.0000 0.0000 0.0000 (  2085 PWs)   bands (ev):

   -68.4386 -68.4088 -68.1839 -34.5657 -34.5657 -34.5657 -34.5619 -34.5619
   -34.5619 -34.2607 -34.2607 -34.2607   5.9917  13.7134  13.7134  13.7134
    14.4607  14.4607  15.7984  15.7984  15.7984  17.9187  17.9187  17.9187
    18.8284  18.8284  18.9315  18.9315  21.0874  21.9377  21.9377

          k =-0.2000 0.2000 0.2000 (  2028 PWs)   bands (ev):

   -68.4335 -68.4098 -68.1865 -34.5967 -34.5871 -34.5871 -34.5453 -34.5453
   -34.5236 -34.2697 -34.2561 -34.2561   6.5235  12.9500  13.6393  13.6393
    14.8901  14.8901  15.4940  15.7492  15.7492  17.4200  17.5588  17.5588
    18.7820  18.7820  18.8608  18.8608  20.6455  21.5553  21.9347

          k =-0.4000 0.4000 0.4000 (  2039 PWs)   bands (ev):

   -68.4239 -68.4146 -68.1916 -34.6032 -34.6032 -34.5889 -34.5369 -34.5369
   -34.5285 -34.2752 -34.2487 -34.2487   7.8530  11.1116  13.6495  13.6495
    15.3602  15.4721  15.4721  15.8254  15.8254  16.8822  16.9744  16.9744
    18.5176  18.5176  18.7914  18.7914  18.8839  21.7041  21.9745

          k = 0.0000 0.0000 0.4000 (  2037 PWs)   bands (ev):

   -68.4322 -68.4103 -68.1877 -34.6130 -34.6130 -34.5680 -34.5402 -34.5244
   -34.5244 -34.2821 -34.2512 -34.2512   6.6947  12.5856  13.9694  13.9694
    14.7801  14.8442  15.1384  15.8399  15.8399  17.3278  17.3278  17.6552
    18.5848  18.7751  18.8115  18.9517  20.2998  20.9532  20.9532

          k =-0.2000 0.2000 0.6000 (  2056 PWs)   bands (ev):

   -68.4250 -68.4133 -68.1923 -34.6279 -34.6227 -34.5817 -34.5255 -34.5166
   -34.5166 -34.2868 -34.2479 -34.2443   7.7537  11.7131  13.3433  14.0265
    14.7522  15.2816  15.3471  15.8040  16.0047  16.8534  16.8784  17.5555
    18.3978  18.5813  18.6401  18.8374  19.2365  19.9390  20.2396

          k = 0.6000-0.6000-0.2000 (  2048 PWs)   bands (ev):

   -68.4196 -68.4168 -68.1940 -34.6202 -34.6200 -34.5817 -34.5483 -34.5241
   -34.5074 -34.2699 -34.2550 -34.2448   8.4614  11.1000  12.9133  13.8026
    14.7606  15.5095  15.7096  16.0976  16.1661  16.6800  16.7418  16.9478
    18.2970  18.6009  18.6267  18.7207  18.7953  19.9029  20.3247

          k = 0.4000-0.4000 0.0000 (  2027 PWs)   bands (ev):

   -68.4274 -68.4121 -68.1903 -34.6140 -34.5994 -34.5941 -34.5425 -34.5305
   -34.5109 -34.2749 -34.2521 -34.2510   7.3283  12.1812  13.4656  13.5574
    14.8774  15.3474  15.4619  15.5750  16.0103  16.8254  17.2608  17.3751
    18.5718  18.6575  18.8113  18.8339  20.0118  20.1046  21.1959

          k = 0.0000 0.0000 0.8000 (  2048 PWs)   bands (ev):

   -68.4221 -68.4136 -68.1947 -34.6498 -34.6498 -34.5798 -34.5016 -34.5016
   -34.4987 -34.3144 -34.2379 -34.2379   8.3478  11.3578  14.0219  14.0581
    14.4993  14.4993  15.7624  15.7624  15.7624  16.9556  16.9556  17.7172
    17.8145  18.4374  18.7739  18.7841  18.9941  18.9941  19.1725

          k = 0.8000-0.8000 0.0000 (  2051 PWs)   bands (ev):

   -68.4191 -68.4155 -68.1959 -34.6462 -34.6445 -34.5772 -34.5284 -34.5048
   -34.4931 -34.2956 -34.2439 -34.2382   8.8392  11.4531  12.5742  13.9752
    14.3142  15.4674  15.5829  15.8838  16.2784  16.6851  16.8045  17.4183
    18.0022  18.2739  18.6663  18.7089  18.7903  19.0221  19.1414

          k = 1.0000-0.6000-0.2000 (  2042 PWs)   bands (ev):

   -68.4195 -68.4156 -68.1951 -34.6511 -34.6070 -34.5867 -34.5532 -34.5032
   -34.4978 -34.2788 -34.2548 -34.2391   8.6351  11.6242  12.5971  13.5154
    14.6534  15.5303  15.6822  15.8099  16.4406  16.5831  16.6438  17.3246
    18.2084  18.4048  18.6275  18.7327  18.8542  19.2627  19.3026

     the Fermi energy is    17.4092 ev

!    total energy              =    -999.29978884 Ry
     estimated scf accuracy    <          2.9E-10 Ry
     smearing contrib. (-TS)   =       0.00014619 Ry
     internal energy E=F+TS    =    -999.29993504 Ry

     The total energy is F=E-TS. E is the sum of the following terms:
     one-electron contribution =    -391.51635032 Ry
     hartree contribution      =     229.19691499 Ry
     xc contribution           =    -110.85156897 Ry
     ewald contribution        =    -497.68288100 Ry
     one-center paw contrib.   =    -228.44604973 Ry

     total magnetization       =     5.10 Bohr mag/cell
     absolute magnetization    =     5.55 Bohr mag/cell

     convergence has been achieved in  40 iterations

     negative rho (up, down):  0.000E+00 1.397E-04

     Forces acting on atoms (cartesian axes, Ry/au):

     atom    1 type  2   force =     0.00000000    0.00000000    0.00000000
     atom    2 type  2   force =     0.00000000    0.00000000    0.00000000
     atom    3 type  2   force =     0.00000000    0.00000000   -0.00000000
     atom    4 type  1   force =     0.00000000   -0.00000000    0.00000000

     Total force =     0.000000     Total SCF correction =     0.000000


     Computing stress (Cartesian axis) and pressure


     negative rho (up, down):  0.000E+00 1.397E-04
          total   stress  (Ry/bohr**3)                   (kbar)     P=      -67.87
  -0.00046140  -0.00000000  -0.00000000          -67.87       -0.00       -0.00
  -0.00000000  -0.00046140  -0.00000000           -0.00      -67.87       -0.00
  -0.00000000  -0.00000000  -0.00046140           -0.00       -0.00      -67.87


     BFGS Geometry Optimization
     Energy error            =      0.0E+00 Ry
     Gradient error          =      2.6E-31 Ry/Bohr
     Cell gradient error     =      6.8E+01 kbar

     number of scf cycles    =   1
     number of bfgs steps    =   0

     enthalpy           new  =    -999.2997888416 Ry

     new trust radius        =       0.0402966793 bohr
     Message from routine volume:
     axis vectors are left-handed
     new conv_thr            =       0.0000000100 Ry

     new unit-cell volume =    294.65796 a.u.^3 (    43.66380 Ang^3 )
     density =      7.43945 g/cm^3

CELL_PARAMETERS (alat= 10.68640123)
   0.494232441   0.494232441  -0.000000000
   0.494232441  -0.000000000   0.494232441
  -0.000000000   0.494232441   0.494232441

ATOMIC_POSITIONS (crystal)
Fe            0.5000000000        0.5000000000        0.5000000000
Fe            0.2500000000        0.2500000000        0.2500000000
Fe            0.7500000000        0.7500000000        0.7500000000
Si           -0.0000000000        0.0000000000       -0.0000000000



     Writing config-only to output data dir ./file.save/
     NEW-OLD atomic charge density approx. for the potential

     Check: negative core charge=   -0.000067

     negative rho (up, down):  0.000E+00 1.366E-04
     extrapolated charge   50.15826, renormalised to   52.00000
     Generating pointlists ...
     new r_m :   0.1766 (alat units)  1.8868 (a.u.) for type    1
     new r_m :   0.1766 (alat units)  1.8868 (a.u.) for type    2

     total cpu time spent up to now is       62.9 secs

     per-process dynamical memory:    68.7 Mb

     Self-consistent Calculation

     iteration #  1     ecut=    54.00 Ry     beta= 0.70
     Davidson diagonalization with overlap
     c_bands:  1 eigenvalues not converged
     ethr =  1.00E-06,  avg # of iterations = 15.3

     total cpu time spent up to now is       68.7 secs

     total energy              =    -993.33187726 Ry
     estimated scf accuracy    <       5.70219627 Ry

     total magnetization       =     4.39 Bohr mag/cell
     absolute magnetization    =     4.89 Bohr mag/cell

     iteration #  2     ecut=    54.00 Ry     beta= 0.70
     Davidson diagonalization with overlap
     ethr =  1.00E-02,  avg # of iterations =  5.2

     negative rho (up, down):  0.000E+00 3.507E-05

     total cpu time spent up to now is       71.0 secs

     total energy              =    -996.17162120 Ry
     estimated scf accuracy    <      54.19804270 Ry

     total magnetization       =     1.29 Bohr mag/cell
     absolute magnetization    =     1.43 Bohr mag/cell

     iteration #  3     ecut=    54.00 Ry     beta= 0.70
     Davidson diagonalization with overlap
     ethr =  1.00E-02,  avg # of iterations =  3.4

     negative rho (up, down):  0.000E+00 6.505E-05

     total cpu time spent up to now is       72.7 secs

     total energy              =    -999.46707417 Ry
     estimated scf accuracy    <       5.10800093 Ry

     total magnetization       =     3.75 Bohr mag/cell
     absolute magnetization    =     3.90 Bohr mag/cell

     iteration #  4     ecut=    54.00 Ry     beta= 0.70
     Davidson diagonalization with overlap
     ethr =  9.82E-03,  avg # of iterations =  1.5

     negative rho (up, down):  0.000E+00 6.472E-05

     total cpu time spent up to now is       74.0 secs

     total energy              =    -999.48994011 Ry
     estimated scf accuracy    <       3.20015718 Ry

     total magnetization       =     3.52 Bohr mag/cell
     absolute magnetization    =     3.71 Bohr mag/cell

     iteration #  5     ecut=    54.00 Ry     beta= 0.70
     Davidson diagonalization with overlap
     ethr =  6.15E-03,  avg # of iterations =  1.5

     negative rho (up, down):  0.000E+00 9.120E-05

     total cpu time spent up to now is       75.3 secs

     total energy              =    -999.32300062 Ry
     estimated scf accuracy    <       1.85039714 Ry

     total magnetization       =     4.05 Bohr mag/cell
     absolute magnetization    =     4.24 Bohr mag/cell

     iteration #  6     ecut=    54.00 Ry     beta= 0.70
     Davidson diagonalization with overlap
     ethr =  3.56E-03,  avg # of iterations =  1.2

     negative rho (up, down):  0.000E+00 1.241E-04

     total cpu time spent up to now is       76.5 secs

     total energy              =    -999.15117317 Ry
     estimated scf accuracy    <       0.76276526 Ry

     total magnetization       =     4.14 Bohr mag/cell
     absolute magnetization    =     4.40 Bohr mag/cell

     iteration #  7     ecut=    54.00 Ry     beta= 0.70
     Davidson diagonalization with overlap
     ethr =  1.47E-03,  avg # of iterations =  2.8

     negative rho (up, down):  0.000E+00 1.272E-04

     total cpu time spent up to now is       78.0 secs

     total energy              =    -999.28029181 Ry
     estimated scf accuracy    <       0.01357465 Ry

     total magnetization       =     4.53 Bohr mag/cell
     absolute magnetization    =     4.83 Bohr mag/cell

     iteration #  8     ecut=    54.00 Ry     beta= 0.70
     Davidson diagonalization with overlap
     ethr =  2.61E-05,  avg # of iterations =  7.1

     negative rho (up, down):  0.000E+00 1.245E-04

     total cpu time spent up to now is       80.5 secs

     total energy              =    -999.30000416 Ry
     estimated scf accuracy    <       0.00278262 Ry

     total magnetization       =     4.61 Bohr mag/cell
     absolute magnetization    =     4.92 Bohr mag/cell

     iteration #  9     ecut=    54.00 Ry     beta= 0.70
     Davidson diagonalization with overlap
     ethr =  5.35E-06,  avg # of iterations =  3.2

     negative rho (up, down):  0.000E+00 1.249E-04

     total cpu time spent up to now is       82.0 secs

     total energy              =    -999.30048958 Ry
     estimated scf accuracy    <       0.00818399 Ry

     total magnetization       =     4.59 Bohr mag/cell
     absolute magnetization    =     4.90 Bohr mag/cell

     iteration # 10     ecut=    54.00 Ry     beta= 0.70
     Davidson diagonalization with overlap
     ethr =  5.35E-06,  avg # of iterations =  1.0

     negative rho (up, down):  0.000E+00 1.302E-04

     total cpu time spent up to now is       83.3 secs

     total energy              =    -999.29801267 Ry
     estimated scf accuracy    <       0.00755110 Ry

     total magnetization       =     4.60 Bohr mag/cell
     absolute magnetization    =     4.91 Bohr mag/cell

     iteration # 11     ecut=    54.00 Ry     beta= 0.70
     Davidson diagonalization with overlap
     ethr =  5.35E-06,  avg # of iterations =  3.2

     negative rho (up, down):  0.000E+00 1.291E-04

     total cpu time spent up to now is       84.8 secs

     total energy              =    -999.29972672 Ry
     estimated scf accuracy    <       0.00133610 Ry

     total magnetization       =     4.78 Bohr mag/cell
     absolute magnetization    =     5.10 Bohr mag/cell

     iteration # 12     ecut=    54.00 Ry     beta= 0.70
     Davidson diagonalization with overlap
     ethr =  2.57E-06,  avg # of iterations =  2.1

     negative rho (up, down):  0.000E+00 1.287E-04

     total cpu time spent up to now is       86.2 secs

     total energy              =    -999.30041465 Ry
     estimated scf accuracy    <       0.00184954 Ry

     total magnetization       =     4.79 Bohr mag/cell
     absolute magnetization    =     5.11 Bohr mag/cell

     iteration # 13     ecut=    54.00 Ry     beta= 0.70
     Davidson diagonalization with overlap
     ethr =  2.57E-06,  avg # of iterations =  2.2

     negative rho (up, down):  0.000E+00 1.290E-04

     total cpu time spent up to now is       87.7 secs

     total energy              =    -999.30155535 Ry
     estimated scf accuracy    <       0.00458708 Ry

     total magnetization       =     4.81 Bohr mag/cell
     absolute magnetization    =     5.13 Bohr mag/cell

     iteration # 14     ecut=    54.00 Ry     beta= 0.70
     Davidson diagonalization with overlap
     ethr =  2.57E-06,  avg # of iterations =  2.5

     negative rho (up, down):  0.000E+00 1.302E-04

     total cpu time spent up to now is       89.1 secs

     total energy              =    -999.30229312 Ry
     estimated scf accuracy    <       0.00919492 Ry

     total magnetization       =     4.87 Bohr mag/cell
     absolute magnetization    =     5.21 Bohr mag/cell

     iteration # 15     ecut=    54.00 Ry     beta= 0.70
     Davidson diagonalization with overlap
     ethr =  2.57E-06,  avg # of iterations =  1.6

     negative rho (up, down):  0.000E+00 1.297E-04

     total cpu time spent up to now is       90.4 secs

     total energy              =    -999.29922664 Ry
     estimated scf accuracy    <       0.01319693 Ry

     total magnetization       =     4.86 Bohr mag/cell
     absolute magnetization    =     5.20 Bohr mag/cell

     iteration # 16     ecut=    54.00 Ry     beta= 0.70
     Davidson diagonalization with overlap
     ethr =  2.57E-06,  avg # of iterations =  3.1

     negative rho (up, down):  0.000E+00 1.312E-04

     total cpu time spent up to now is       92.0 secs

     total energy              =    -999.30057667 Ry
     estimated scf accuracy    <       0.00122494 Ry

     total magnetization       =     4.97 Bohr mag/cell
     absolute magnetization    =     5.39 Bohr mag/cell

     iteration # 17     ecut=    54.00 Ry     beta= 0.70
     Davidson diagonalization with overlap
     ethr =  2.36E-06,  avg # of iterations =  2.1

     negative rho (up, down):  0.000E+00 1.301E-04

     total cpu time spent up to now is       93.4 secs

     total energy              =    -999.30058957 Ry
     estimated scf accuracy    <       0.00168226 Ry

     total magnetization       =     4.95 Bohr mag/cell
     absolute magnetization    =     5.32 Bohr mag/cell

     iteration # 18     ecut=    54.00 Ry     beta= 0.70
     Davidson diagonalization with overlap
     ethr =  2.36E-06,  avg # of iterations =  2.5

     negative rho (up, down):  0.000E+00 1.298E-04

     total cpu time spent up to now is       94.8 secs

     total energy              =    -999.30075579 Ry
     estimated scf accuracy    <       0.00009288 Ry

     total magnetization       =     4.96 Bohr mag/cell
     absolute magnetization    =     5.35 Bohr mag/cell

     iteration # 19     ecut=    54.00 Ry     beta= 0.70
     Davidson diagonalization with overlap
     ethr =  1.79E-07,  avg # of iterations =  4.7

     negative rho (up, down):  0.000E+00 1.292E-04

     total cpu time spent up to now is       96.7 secs

     total energy              =    -999.30164634 Ry
     estimated scf accuracy    <       0.00039813 Ry

     total magnetization       =     5.05 Bohr mag/cell
     absolute magnetization    =     5.44 Bohr mag/cell

     iteration # 20     ecut=    54.00 Ry     beta= 0.70
     Davidson diagonalization with overlap
     ethr =  1.79E-07,  avg # of iterations =  1.9

     negative rho (up, down):  0.000E+00 1.286E-04

     total cpu time spent up to now is       98.0 secs

     total energy              =    -999.30166267 Ry
     estimated scf accuracy    <       0.00022073 Ry

     total magnetization       =     5.05 Bohr mag/cell
     absolute magnetization    =     5.44 Bohr mag/cell

     iteration # 21     ecut=    54.00 Ry     beta= 0.70
     Davidson diagonalization with overlap
     ethr =  1.79E-07,  avg # of iterations =  1.2

     negative rho (up, down):  0.000E+00 1.280E-04

     total cpu time spent up to now is       99.3 secs

     total energy              =    -999.30169107 Ry
     estimated scf accuracy    <       0.00011961 Ry

     total magnetization       =     5.05 Bohr mag/cell
     absolute magnetization    =     5.44 Bohr mag/cell

     iteration # 22     ecut=    54.00 Ry     beta= 0.70
     Davidson diagonalization with overlap
     ethr =  1.79E-07,  avg # of iterations =  1.5

     negative rho (up, down):  0.000E+00 1.272E-04

     total cpu time spent up to now is      100.6 secs

     total energy              =    -999.30169997 Ry
     estimated scf accuracy    <       0.00004770 Ry

     total magnetization       =     5.05 Bohr mag/cell
     absolute magnetization    =     5.45 Bohr mag/cell

     iteration # 23     ecut=    54.00 Ry     beta= 0.70
     Davidson diagonalization with overlap
     ethr =  9.17E-08,  avg # of iterations =  3.2

     negative rho (up, down):  0.000E+00 1.275E-04

     total cpu time spent up to now is      102.0 secs

     total energy              =    -999.30171590 Ry
     estimated scf accuracy    <       0.00000210 Ry

     total magnetization       =     5.06 Bohr mag/cell
     absolute magnetization    =     5.47 Bohr mag/cell

     iteration # 24     ecut=    54.00 Ry     beta= 0.70
     Davidson diagonalization with overlap
     ethr =  4.03E-09,  avg # of iterations =  4.5

     negative rho (up, down):  0.000E+00 1.274E-04

     total cpu time spent up to now is      103.8 secs

     total energy              =    -999.30171722 Ry
     estimated scf accuracy    <       0.00000074 Ry

     total magnetization       =     5.06 Bohr mag/cell
     absolute magnetization    =     5.47 Bohr mag/cell

     iteration # 25     ecut=    54.00 Ry     beta= 0.70
     Davidson diagonalization with overlap
     ethr =  1.42E-09,  avg # of iterations =  3.4

     negative rho (up, down):  0.000E+00 1.273E-04

     total cpu time spent up to now is      105.3 secs

     total energy              =    -999.30171699 Ry
     estimated scf accuracy    <       0.00000014 Ry

     total magnetization       =     5.06 Bohr mag/cell
     absolute magnetization    =     5.47 Bohr mag/cell

     iteration # 26     ecut=    54.00 Ry     beta= 0.70
     Davidson diagonalization with overlap
     ethr =  2.71E-10,  avg # of iterations =  4.8

     negative rho (up, down):  0.000E+00 1.273E-04

     total cpu time spent up to now is      107.2 secs

     total energy              =    -999.30171747 Ry
     estimated scf accuracy    <       0.00000079 Ry

     total magnetization       =     5.06 Bohr mag/cell
     absolute magnetization    =     5.48 Bohr mag/cell

     iteration # 27     ecut=    54.00 Ry     beta= 0.70
     Davidson diagonalization with overlap
     ethr =  2.71E-10,  avg # of iterations =  2.6

     negative rho (up, down):  0.000E+00 1.274E-04

     total cpu time spent up to now is      108.7 secs

     total energy              =    -999.30171753 Ry
     estimated scf accuracy    <       0.00000013 Ry

     total magnetization       =     5.06 Bohr mag/cell
     absolute magnetization    =     5.47 Bohr mag/cell

     iteration # 28     ecut=    54.00 Ry     beta= 0.70
     Davidson diagonalization with overlap
     ethr =  2.45E-10,  avg # of iterations =  2.6

     negative rho (up, down):  0.000E+00 1.274E-04

     Magnetic moment per site  (integrated on atomic sphere of radius R)
     atom   1 (R=0.177)  charge= 14.3490  magn=  2.5307
     atom   2 (R=0.177)  charge= 14.4556  magn=  1.3393
     atom   3 (R=0.177)  charge= 14.4556  magn=  1.3393
     atom   4 (R=0.177)  charge=  2.0245  magn= -0.0587

     total cpu time spent up to now is      110.1 secs

     End of self-consistent calculation

 ------ SPIN UP ------------


          k = 0.0000 0.0000 0.0000 (  2085 PWs)   bands (ev):

   -70.5124 -69.3004 -69.2840 -36.5699 -36.5699 -36.5699 -35.4052 -35.4052
   -35.4052 -35.3280 -35.3280 -35.3280   6.4872  13.4748  13.4748  13.7459
    13.7459  13.7459  14.8742  14.8742  14.8742  16.8999  16.8999  17.4668
    17.4668  17.4668  17.8755  17.8755  21.9603  22.4257  22.4257

          k =-0.2023 0.2023 0.2023 (  2028 PWs)   bands (ev):

   -70.5111 -69.2990 -69.2851 -36.5719 -36.5719 -36.5700 -35.3973 -35.3973
   -35.3927 -35.3422 -35.3341 -35.3341   7.0391  13.1748  13.2317  13.2317
    14.3678  14.3678  14.6988  14.8635  14.8635  16.8208  16.8208  17.0109
    17.1328  17.1328  17.8336  17.8336  20.2656  22.0623  22.2644

          k =-0.4047 0.4047 0.4047 (  2039 PWs)   bands (ev):

   -70.5101 -69.2956 -69.2899 -36.5752 -36.5752 -36.5695 -35.3792 -35.3792
   -35.3748 -35.3633 -35.3493 -35.3493   8.4270  11.5276  13.2020  13.2020
    14.6603  14.6747  14.6747  15.3882  15.3882  16.4467  16.4467  16.6382
    16.8926  16.8926  17.5220  17.5220  18.0872  21.8604  21.8604

          k = 0.0000 0.0000 0.4047 (  2037 PWs)   bands (ev):

   -70.5109 -69.2989 -69.2856 -36.5744 -36.5744 -36.5664 -35.4001 -35.4001
   -35.3782 -35.3606 -35.3290 -35.3290   7.2148  12.4345  13.8212  14.0614
    14.0614  14.2650  14.4149  14.9735  14.9735  16.6121  16.9225  16.9368
    16.9368  17.0794  17.8378  17.8603  20.4965  20.7011  20.7011

          k =-0.2023 0.2023 0.6070 (  2056 PWs)   bands (ev):

   -70.5101 -69.2970 -69.2889 -36.5778 -36.5766 -36.5662 -35.3922 -35.3892
   -35.3860 -35.3539 -35.3369 -35.3363   8.3033  11.8798  13.2894  13.7211
    14.2956  14.6161  14.8699  15.0200  15.3556  16.2593  16.4150  16.6764
    16.7688  17.0488  17.6464  17.6709  18.5824  19.6827  19.8780

          k = 0.6070-0.6070-0.2023 (  2048 PWs)   bands (ev):

   -70.5097 -69.2937 -69.2924 -36.5775 -36.5746 -36.5704 -35.3996 -35.3821
   -35.3711 -35.3553 -35.3504 -35.3352   9.0296  11.4952  12.8899  13.3936
    14.3516  14.6542  14.8915  15.5478  15.7687  16.1384  16.1613  16.4527
    16.7111  16.7478  17.6476  17.6592  17.8716  19.4046  20.0487

          k = 0.4047-0.4047 0.0000 (  2027 PWs)   bands (ev):

   -70.5102 -69.2973 -69.2876 -36.5743 -36.5738 -36.5704 -35.3992 -35.3806
   -35.3712 -35.3663 -35.3492 -35.3290   7.8707  12.3495  13.0941  13.6907
    14.1471  14.6585  14.6954  15.0895  15.0900  16.3651  16.6816  16.6835
    16.8849  16.9547  17.6606  17.8916  19.5321  19.5866  21.2239

          k = 0.0000 0.0000 0.8093 (  2048 PWs)   bands (ev):

   -70.5095 -69.2970 -69.2893 -36.5817 -36.5817 -36.5603 -35.4133 -35.3895
   -35.3895 -35.3343 -35.3328 -35.3328   8.8666  11.5550  13.5483  14.0697
    14.6806  14.6806  14.7212  15.1534  15.1534  15.8059  16.4859  16.5953
    16.5953  17.0703  17.5317  17.8358  18.3250  18.3250  18.5461

          k = 0.8093-0.8093 0.0000 (  2051 PWs)   bands (ev):

   -70.5093 -69.2953 -69.2912 -36.5815 -36.5801 -36.5633 -35.4186 -35.3862
   -35.3819 -35.3407 -35.3367 -35.3279   9.3266  11.8243  12.7815  13.8183
    14.1551  14.7216  15.0170  15.2005  15.5901  16.1360  16.3274  16.4814
    16.5042  16.9401  17.3351  17.7558  17.9335  18.3507  18.3947

          k = 1.0117-0.6070-0.2023 (  2042 PWs)   bands (ev):

   -70.5094 -69.2947 -69.2915 -36.5816 -36.5745 -36.5679 -35.4112 -35.3915
   -35.3707 -35.3527 -35.3359 -35.3307   9.1614  11.8917  12.7930  13.5933
    14.1360  14.8460  15.0231  15.0836  15.7710  15.9769  16.1182  16.5349
    16.7386  16.8373  17.4390  17.8956  17.9661  18.5205  18.7090

 ------ SPIN DOWN ----------


          k = 0.0000 0.0000 0.0000 (  2085 PWs)   bands (ev):

   -67.7392 -67.7008 -67.4973 -33.8734 -33.8734 -33.8734 -33.8686 -33.8686
   -33.8686 -33.5655 -33.5655 -33.5655   6.5009  14.2841  14.2841  14.2841
    14.9921  14.9921  16.4193  16.4193  16.4193  18.6359  18.6359  18.6359
    19.5895  19.5895  19.6630  19.6630  22.1578  22.8450  22.8450

          k =-0.2023 0.2023 0.2023 (  2028 PWs)   bands (ev):

   -67.7327 -67.7021 -67.5012 -33.9104 -33.9004 -33.9004 -33.8470 -33.8470
   -33.8216 -33.5776 -33.5602 -33.5602   7.0493  13.5413  14.1960  14.1960
    15.4574  15.4574  16.1083  16.3663  16.3663  18.1215  18.2583  18.2583
    19.5366  19.5366  19.5926  19.5926  21.5068  22.5353  22.8403

          k =-0.4047 0.4047 0.4047 (  2039 PWs)   bands (ev):

   -67.7199 -67.7078 -67.5084 -33.9205 -33.9205 -33.9025 -33.8359 -33.8359
   -33.8262 -33.5841 -33.5517 -33.5517   8.4232  11.6979  14.2091  14.2091
    15.9679  16.0721  16.0721  16.4476  16.4476  17.5689  17.6413  17.6413
    19.2595  19.2595  19.5185  19.5185  19.6455  22.6865  22.8806

          k = 0.0000 0.0000 0.4047 (  2037 PWs)   bands (ev):

   -67.7309 -67.7026 -67.5028 -33.9300 -33.9300 -33.8775 -33.8393 -33.8232
   -33.8232 -33.5930 -33.5547 -33.5547   7.2257  13.1380  14.5621  14.5621
    15.3553  15.3922  15.7395  16.4642  16.4642  18.0220  18.0220  18.3603
    19.2956  19.5319  19.5715  19.6888  21.2032  21.8024  21.8024

          k =-0.2023 0.2023 0.6070 (  2056 PWs)   bands (ev):

   -67.7211 -67.7062 -67.5094 -33.9482 -33.9421 -33.8921 -33.8237 -33.8132
   -33.8129 -33.5990 -33.5510 -33.5469   8.3174  12.2867  13.9272  14.6194
    15.3483  15.8892  15.9336  16.4213  16.6337  17.5213  17.5499  18.2578
    19.1004  19.3267  19.3880  19.5705  20.0150  20.7835  21.0619

          k = 0.6070-0.6070-0.2023 (  2048 PWs)   bands (ev):

   -67.7142 -67.7104 -67.5118 -33.9397 -33.9386 -33.8949 -33.8496 -33.8211
   -33.8022 -33.5775 -33.5593 -33.5475   9.0497  11.6816  13.4944  14.3758
    15.3561  16.1083  16.3224  16.7379  16.8042  17.3347  17.3945  17.6265
    19.0183  19.3325  19.3585  19.4715  19.5409  20.7240  21.1540

          k = 0.4047-0.4047 0.0000 (  2027 PWs)   bands (ev):

   -67.7245 -67.7049 -67.5065 -33.9301 -33.9159 -33.9102 -33.8420 -33.8285
   -33.8065 -33.5847 -33.5558 -33.5542   7.8790  12.7665  14.0734  14.1076
    15.4480  15.9462  16.0670  16.1806  16.6392  17.4950  17.9408  18.0742
    19.2871  19.4064  19.5415  19.5917  20.8258  20.9244  22.0643

          k = 0.0000 0.0000 0.8093 (  2048 PWs)   bands (ev):

   -67.7170 -67.7066 -67.5129 -33.9735 -33.9735 -33.8859 -33.7954 -33.7954
   -33.7919 -33.6354 -33.5396 -33.5396   8.9260  11.9166  14.6238  14.6259
    15.1434  15.1434  16.3564  16.3783  16.3783  17.6367  17.6367  18.3738
    18.5291  19.1746  19.5093  19.5426  19.7562  19.7562  19.9664

          k = 0.8093-0.8093 0.0000 (  2051 PWs)   bands (ev):

   -67.7130 -67.7089 -67.5147 -33.9696 -33.9674 -33.8820 -33.8317 -33.7990
   -33.7855 -33.6091 -33.5470 -33.5400   9.4308  12.0281  13.1748  14.5609
    14.9368  16.0959  16.1823  16.5007  16.9051  17.3558  17.4774  18.1110
    18.6797  18.9997  19.4114  19.4392  19.5474  19.7957  19.9269

          k = 1.0117-0.6070-0.2023 (  2042 PWs)   bands (ev):

   -67.7138 -67.7090 -67.5135 -33.9750 -33.9245 -33.8971 -33.8572 -33.7973
   -33.7910 -33.5885 -33.5591 -33.5413   9.2233  12.2017  13.1875  14.1302
    15.2381  16.1441  16.2933  16.4225  17.0842  17.2475  17.3011  18.0125
    18.9093  19.1398  19.3513  19.4755  19.6162  20.0480  20.0988

     the Fermi energy is    18.1139 ev

!    total energy              =    -999.30171757 Ry
     estimated scf accuracy    <          8.8E-10 Ry
     smearing contrib. (-TS)   =       0.00013723 Ry
     internal energy E=F+TS    =    -999.30185479 Ry

     The total energy is F=E-TS. E is the sum of the following terms:
     one-electron contribution =    -382.38755069 Ry
     hartree contribution      =     225.98757723 Ry
     xc contribution           =    -110.96218719 Ry
     ewald contribution        =    -503.49070574 Ry
     one-center paw contrib.   =    -228.44898840 Ry

     total magnetization       =     5.06 Bohr mag/cell
     absolute magnetization    =     5.47 Bohr mag/cell

     convergence has been achieved in  28 iterations

     negative rho (up, down):  0.000E+00 1.274E-04

     Forces acting on atoms (cartesian axes, Ry/au):

     atom    1 type  2   force =    -0.00000000    0.00000000    0.00000000
     atom    2 type  2   force =    -0.00000000   -0.00000000   -0.00000000
     atom    3 type  2   force =     0.00000000    0.00000000    0.00000000
     atom    4 type  1   force =     0.00000000    0.00000000    0.00000000

     Total force =     0.000000     Total SCF correction =     0.000000


     Computing stress (Cartesian axis) and pressure


     negative rho (up, down):  0.000E+00 1.274E-04
          total   stress  (Ry/bohr**3)                   (kbar)     P=       15.00
   0.00010197   0.00000000   0.00000000           15.00        0.00        0.00
   0.00000000   0.00010197  -0.00000000            0.00       15.00       -0.00
  -0.00000000   0.00000000   0.00010197           -0.00        0.00       15.00

     Energy error            =      1.9E-03 Ry
     Gradient error          =      1.4E-31 Ry/Bohr
     Cell gradient error     =      1.5E+01 kbar

     number of scf cycles    =   2
     number of bfgs steps    =   1

     enthalpy           old  =    -999.2997888416 Ry
     enthalpy           new  =    -999.3017175677 Ry

     CASE: enthalpy          _new < enthalpy          _old

     new trust radius        =       0.0071145194 bohr
     Message from routine volume:
     axis vectors are left-handed
     new conv_thr            =            1.0E-10 Ry

     new unit-cell volume =    296.49363 a.u.^3 (    43.93582 Ang^3 )
     density =      7.39339 g/cm^3

CELL_PARAMETERS (alat= 10.68640123)
   0.495256648   0.495256648  -0.000000000
   0.495256648  -0.000000000   0.495256648
  -0.000000000   0.495256648   0.495256648

ATOMIC_POSITIONS (crystal)
Fe            0.5000000000        0.5000000000        0.5000000000
Fe            0.2500000000        0.2500000000        0.2500000000
Fe            0.7500000000        0.7500000000        0.7500000000
Si           -0.0000000000        0.0000000000       -0.0000000000



     Writing config-only to output data dir ./file.save/
     NEW-OLD atomic charge density approx. for the potential

     Check: negative core charge=   -0.000066

     negative rho (up, down):  0.000E+00 1.280E-04
     extrapolated charge   52.32193, renormalised to   52.00000
     Generating pointlists ...

     total cpu time spent up to now is      114.6 secs

     per-process dynamical memory:    68.9 Mb

     Self-consistent Calculation

     iteration #  1     ecut=    54.00 Ry     beta= 0.70
     Davidson diagonalization with overlap
     ethr =  1.00E-06,  avg # of iterations =  9.3

     negative rho (up, down):  0.000E+00 1.456E-04

     total cpu time spent up to now is      118.0 secs

     total energy              =    -999.14965811 Ry
     estimated scf accuracy    <       0.14190086 Ry

     total magnetization       =     5.02 Bohr mag/cell
     absolute magnetization    =     5.38 Bohr mag/cell

     iteration #  2     ecut=    54.00 Ry     beta= 0.70
     Davidson diagonalization with overlap
     ethr =  2.73E-04,  avg # of iterations =  5.0

     negative rho (up, down):  0.000E+00 1.408E-04

     total cpu time spent up to now is      120.1 secs

     total energy              =    -999.13358806 Ry
     estimated scf accuracy    <       2.01963995 Ry

     total magnetization       =     4.65 Bohr mag/cell
     absolute magnetization    =     5.33 Bohr mag/cell

     iteration #  3     ecut=    54.00 Ry     beta= 0.70
     Davidson diagonalization with overlap
     ethr =  2.73E-04,  avg # of iterations =  3.9

     negative rho (up, down):  0.000E+00 1.315E-04

     total cpu time spent up to now is      121.8 secs

     total energy              =    -999.27895079 Ry
     estimated scf accuracy    <       0.70861317 Ry

     total magnetization       =     5.09 Bohr mag/cell
     absolute magnetization    =     5.45 Bohr mag/cell

     iteration #  4     ecut=    54.00 Ry     beta= 0.70
     Davidson diagonalization with overlap
     ethr =  2.73E-04,  avg # of iterations =  1.8

     negative rho (up, down):  0.000E+00 1.297E-04

     total cpu time spent up to now is      123.2 secs

     total energy              =    -999.30614625 Ry
     estimated scf accuracy    <       0.08018231 Ry

     total magnetization       =     5.03 Bohr mag/cell
     absolute magnetization    =     5.47 Bohr mag/cell

     iteration #  5     ecut=    54.00 Ry     beta= 0.70
     Davidson diagonalization with overlap
     ethr =  1.54E-04,  avg # of iterations =  1.1

     negative rho (up, down):  0.000E+00 1.299E-04

     total cpu time spent up to now is      124.4 secs

     total energy              =    -999.30252066 Ry
     estimated scf accuracy    <       0.04092328 Ry

     total magnetization       =     5.04 Bohr mag/cell
     absolute magnetization    =     5.47 Bohr mag/cell

     iteration #  6     ecut=    54.00 Ry     beta= 0.70
     Davidson diagonalization with overlap
     ethr =  7.87E-05,  avg # of iterations =  1.4

     negative rho (up, down):  0.000E+00 1.298E-04

     total cpu time spent up to now is      125.7 secs

     total energy              =    -999.30237664 Ry
     estimated scf accuracy    <       0.01634415 Ry

     total magnetization       =     5.05 Bohr mag/cell
     absolute magnetization    =     5.48 Bohr mag/cell

     iteration #  7     ecut=    54.00 Ry     beta= 0.70
     Davidson diagonalization with overlap
     ethr =  3.14E-05,  avg # of iterations =  1.3

     negative rho (up, down):  0.000E+00 1.300E-04

     total cpu time spent up to now is      127.0 secs

     total energy              =    -999.30232743 Ry
     estimated scf accuracy    <       0.00890514 Ry

     total magnetization       =     5.06 Bohr mag/cell
     absolute magnetization    =     5.48 Bohr mag/cell

     iteration #  8     ecut=    54.00 Ry     beta= 0.70
     Davidson diagonalization with overlap
     ethr =  1.71E-05,  avg # of iterations =  1.2

     negative rho (up, down):  0.000E+00 1.301E-04

     total cpu time spent up to now is      128.2 secs

     total energy              =    -999.30243903 Ry
     estimated scf accuracy    <       0.00611604 Ry

     total magnetization       =     5.06 Bohr mag/cell
     absolute magnetization    =     5.48 Bohr mag/cell

     iteration #  9     ecut=    54.00 Ry     beta= 0.70
     Davidson diagonalization with overlap
     ethr =  1.18E-05,  avg # of iterations =  1.1

     negative rho (up, down):  0.000E+00 1.301E-04

     total cpu time spent up to now is      129.5 secs

     total energy              =    -999.30249396 Ry
     estimated scf accuracy    <       0.00538601 Ry

     total magnetization       =     5.06 Bohr mag/cell
     absolute magnetization    =     5.48 Bohr mag/cell

     iteration # 10     ecut=    54.00 Ry     beta= 0.70
     Davidson diagonalization with overlap
     ethr =  1.04E-05,  avg # of iterations =  1.1

     negative rho (up, down):  0.000E+00 1.311E-04

     total cpu time spent up to now is      130.7 secs

     total energy              =    -999.30086648 Ry
     estimated scf accuracy    <       0.00500433 Ry

     total magnetization       =     5.06 Bohr mag/cell
     absolute magnetization    =     5.48 Bohr mag/cell

     iteration # 11     ecut=    54.00 Ry     beta= 0.70
     Davidson diagonalization with overlap
     ethr =  9.62E-06,  avg # of iterations =  2.5

     negative rho (up, down):  0.000E+00 1.304E-04

     total cpu time spent up to now is      132.2 secs

     total energy              =    -999.30169499 Ry
     estimated scf accuracy    <       0.00002357 Ry

     total magnetization       =     5.08 Bohr mag/cell
     absolute magnetization    =     5.49 Bohr mag/cell

     iteration # 12     ecut=    54.00 Ry     beta= 0.70
     Davidson diagonalization with overlap
     ethr =  4.53E-08,  avg # of iterations =  8.8

     negative rho (up, down):  0.000E+00 1.302E-04

     total cpu time spent up to now is      135.4 secs

     total energy              =    -999.30182123 Ry
     estimated scf accuracy    <       0.00005637 Ry

     total magnetization       =     5.07 Bohr mag/cell
     absolute magnetization    =     5.49 Bohr mag/cell

     iteration # 13     ecut=    54.00 Ry     beta= 0.70
     Davidson diagonalization with overlap
     ethr =  4.53E-08,  avg # of iterations =  1.0

     negative rho (up, down):  0.000E+00 1.304E-04

     total cpu time spent up to now is      136.6 secs

     total energy              =    -999.30181152 Ry
     estimated scf accuracy    <       0.00005217 Ry

     total magnetization       =     5.07 Bohr mag/cell
     absolute magnetization    =     5.49 Bohr mag/cell

     iteration # 14     ecut=    54.00 Ry     beta= 0.70
     Davidson diagonalization with overlap
     ethr =  4.53E-08,  avg # of iterations =  2.0

     negative rho (up, down):  0.000E+00 1.304E-04

     total cpu time spent up to now is      138.0 secs

     total energy              =    -999.30181239 Ry
     estimated scf accuracy    <       0.00001605 Ry

     total magnetization       =     5.07 Bohr mag/cell
     absolute magnetization    =     5.49 Bohr mag/cell

     iteration # 15     ecut=    54.00 Ry     beta= 0.70
     Davidson diagonalization with overlap
     ethr =  3.09E-08,  avg # of iterations =  1.0

     negative rho (up, down):  0.000E+00 1.303E-04

     total cpu time spent up to now is      139.3 secs

     total energy              =    -999.30181150 Ry
     estimated scf accuracy    <       0.00001042 Ry

     total magnetization       =     5.07 Bohr mag/cell
     absolute magnetization    =     5.49 Bohr mag/cell

     iteration # 16     ecut=    54.00 Ry     beta= 0.70
     Davidson diagonalization with overlap
     ethr =  2.00E-08,  avg # of iterations =  1.0

     negative rho (up, down):  0.000E+00 1.302E-04

     total cpu time spent up to now is      140.5 secs

     total energy              =    -999.30181096 Ry
     estimated scf accuracy    <       0.00000637 Ry

     total magnetization       =     5.07 Bohr mag/cell
     absolute magnetization    =     5.49 Bohr mag/cell

     iteration # 17     ecut=    54.00 Ry     beta= 0.70
     Davidson diagonalization with overlap
     ethr =  1.22E-08,  avg # of iterations =  1.0

     negative rho (up, down):  0.000E+00 1.299E-04

     total cpu time spent up to now is      141.7 secs

     total energy              =    -999.30180998 Ry
     estimated scf accuracy    <       0.00000407 Ry

     total magnetization       =     5.07 Bohr mag/cell
     absolute magnetization    =     5.49 Bohr mag/cell

     iteration # 18     ecut=    54.00 Ry     beta= 0.70
     Davidson diagonalization with overlap
     ethr =  7.83E-09,  avg # of iterations =  1.3

     negative rho (up, down):  0.000E+00 1.298E-04

     total cpu time spent up to now is      143.0 secs

     total energy              =    -999.30181002 Ry
     estimated scf accuracy    <       0.00000090 Ry

     total magnetization       =     5.07 Bohr mag/cell
     absolute magnetization    =     5.49 Bohr mag/cell

     iteration # 19     ecut=    54.00 Ry     beta= 0.70
     Davidson diagonalization with overlap
     ethr =  1.73E-09,  avg # of iterations =  3.6

     negative rho (up, down):  0.000E+00 1.298E-04

     total cpu time spent up to now is      144.5 secs

     total energy              =    -999.30181010 Ry
     estimated scf accuracy    <       0.00000036 Ry

     total magnetization       =     5.07 Bohr mag/cell
     absolute magnetization    =     5.49 Bohr mag/cell

     iteration # 20     ecut=    54.00 Ry     beta= 0.70
     Davidson diagonalization with overlap
     ethr =  6.83E-10,  avg # of iterations =  2.5

     negative rho (up, down):  0.000E+00 1.299E-04

     total cpu time spent up to now is      145.9 secs

     total energy              =    -999.30181004 Ry
     estimated scf accuracy    <       0.00000023 Ry

     total magnetization       =     5.07 Bohr mag/cell
     absolute magnetization    =     5.49 Bohr mag/cell

     iteration # 21     ecut=    54.00 Ry     beta= 0.70
     Davidson diagonalization with overlap
     ethr =  4.37E-10,  avg # of iterations =  2.1

     negative rho (up, down):  0.000E+00 1.299E-04

     total cpu time spent up to now is      147.3 secs

     total energy              =    -999.30181006 Ry
     estimated scf accuracy    <       0.00000003 Ry

     total magnetization       =     5.07 Bohr mag/cell
     absolute magnetization    =     5.49 Bohr mag/cell

     iteration # 22     ecut=    54.00 Ry     beta= 0.70
     Davidson diagonalization with overlap
     ethr =  6.35E-11,  avg # of iterations =  4.4

     negative rho (up, down):  0.000E+00 1.299E-04

     total cpu time spent up to now is      149.1 secs

     total energy              =    -999.30181008 Ry
     estimated scf accuracy    <          2.7E-09 Ry

     total magnetization       =     5.07 Bohr mag/cell
     absolute magnetization    =     5.49 Bohr mag/cell

     iteration # 23     ecut=    54.00 Ry     beta= 0.70
     Davidson diagonalization with overlap
     ethr =  5.21E-12,  avg # of iterations =  4.2

     negative rho (up, down):  0.000E+00 1.299E-04

     total cpu time spent up to now is      150.8 secs

     total energy              =    -999.30181008 Ry
     estimated scf accuracy    <          1.1E-09 Ry

     total magnetization       =     5.07 Bohr mag/cell
     absolute magnetization    =     5.49 Bohr mag/cell

     iteration # 24     ecut=    54.00 Ry     beta= 0.70
     Davidson diagonalization with overlap
     ethr =  2.03E-12,  avg # of iterations =  2.8

     negative rho (up, down):  0.000E+00 1.299E-04

     total cpu time spent up to now is      152.3 secs

     total energy              =    -999.30181008 Ry
     estimated scf accuracy    <          1.9E-10 Ry

     total magnetization       =     5.07 Bohr mag/cell
     absolute magnetization    =     5.49 Bohr mag/cell

     iteration # 25     ecut=    54.00 Ry     beta= 0.70
     Davidson diagonalization with overlap
     ethr =  3.68E-13,  avg # of iterations =  2.6

     negative rho (up, down):  0.000E+00 1.299E-04

     total cpu time spent up to now is      153.7 secs

     total energy              =    -999.30181008 Ry
     estimated scf accuracy    <          3.0E-10 Ry

     total magnetization       =     5.07 Bohr mag/cell
     absolute magnetization    =     5.49 Bohr mag/cell

     iteration # 26     ecut=    54.00 Ry     beta= 0.70
     Davidson diagonalization with overlap
     ethr =  3.68E-13,  avg # of iterations =  2.1

     negative rho (up, down):  0.000E+00 1.299E-04

     Magnetic moment per site  (integrated on atomic sphere of radius R)
     atom   1 (R=0.177)  charge= 14.3416  magn=  2.5387
     atom   2 (R=0.177)  charge= 14.4476  magn=  1.3429
     atom   3 (R=0.177)  charge= 14.4476  magn=  1.3429
     atom   4 (R=0.177)  charge=  2.0161  magn= -0.0592

     total cpu time spent up to now is      155.2 secs

     End of self-consistent calculation

 ------ SPIN UP ------------


          k = 0.0000 0.0000 0.0000 (  2085 PWs)   bands (ev):

   -70.6412 -69.4318 -69.4159 -36.6978 -36.6978 -36.6978 -35.5351 -35.5351
   -35.5351 -35.4599 -35.4599 -35.4599   6.3969  13.3747  13.3747  13.6417
    13.6417  13.6417  14.7574  14.7574  14.7574  16.7650  16.7650  17.3329
    17.3329  17.3329  17.7362  17.7362  21.7679  22.2610  22.2610

          k =-0.2019 0.2019 0.2019 (  2028 PWs)   bands (ev):

   -70.6399 -69.4304 -69.4169 -36.6998 -36.6998 -36.6978 -35.5274 -35.5274
   -35.5230 -35.4736 -35.4659 -35.4659   6.9458  13.0688  13.1314  13.1314
    14.2603  14.2603  14.5835  14.7475  14.7475  16.6875  16.6875  16.8805
    17.0015  17.0015  17.6943  17.6943  20.1082  21.8983  21.8983

          k =-0.4038 0.4038 0.4038 (  2039 PWs)   bands (ev):

   -70.6389 -69.4271 -69.4215 -36.7029 -36.7029 -36.6974 -35.5097 -35.5097
   -35.5056 -35.4942 -35.4808 -35.4808   8.3260  11.4229  13.1002  13.1002
    14.5467  14.5618  14.5618  15.2731  15.2731  16.3223  16.3223  16.5112
    16.7580  16.7580  17.3851  17.3851  17.9453  21.6956  21.6956

          k = 0.0000 0.0000 0.4038 (  2037 PWs)   bands (ev):

   -70.6397 -69.4303 -69.4173 -36.7021 -36.7021 -36.6945 -35.5302 -35.5302
   -35.5087 -35.4916 -35.4608 -35.4608   7.1206  12.3360  13.7180  13.9544
    13.9544  14.1574  14.3026  14.8557  14.8557  16.4806  16.7863  16.8075
    16.8075  16.9485  17.6983  17.7212  20.3326  20.5458  20.5458

          k =-0.2019 0.2019 0.6057 (  2056 PWs)   bands (ev):

   -70.6390 -69.4285 -69.4206 -36.7054 -36.7042 -36.6943 -35.5225 -35.5196
   -35.5164 -35.4850 -35.4685 -35.4679   8.2036  11.7792  13.1836  13.6156
    14.1856  14.5049  14.7542  14.9064  15.2375  16.1343  16.2901  16.5464
    16.6334  16.9172  17.5086  17.5333  18.4379  19.5283  19.7271

          k = 0.6057-0.6057-0.2019 (  2048 PWs)   bands (ev):

   -70.6385 -69.4253 -69.4240 -36.7051 -36.7023 -36.6983 -35.5297 -35.5126
   -35.5020 -35.4865 -35.4817 -35.4668   8.9259  11.3916  12.7868  13.2897
    14.2412  14.5416  14.7759  15.4280  15.6508  16.0170  16.0398  16.3219
    16.5822  16.6141  17.5099  17.5211  17.7310  19.2532  19.8972

          k = 0.4038-0.4038 0.0000 (  2027 PWs)   bands (ev):

   -70.6391 -69.4288 -69.4193 -36.7020 -36.7016 -36.6982 -35.5294 -35.5110
   -35.5020 -35.4971 -35.4806 -35.4608   7.7731  12.2463  12.9937  13.5814
    14.0400  14.5464  14.5815  14.9711  14.9771  16.2405  16.5510  16.5554
    16.7500  16.8248  17.5229  17.7514  19.3803  19.4354  21.0666

          k = 0.0000 0.0000 0.8077 (  2048 PWs)   bands (ev):

   -70.6384 -69.4284 -69.4209 -36.7091 -36.7091 -36.6886 -35.5430 -35.5201
   -35.5201 -35.4658 -35.4645 -35.4645   8.7649  11.4563  13.4438  13.9599
    14.5681  14.5681  14.6091  15.0348  15.0348  15.6837  16.3482  16.4687
    16.4687  16.9374  17.3956  17.6970  18.1833  18.1833  18.4001

          k = 0.8077-0.8077 0.0000 (  2051 PWs)   bands (ev):

   -70.6382 -69.4268 -69.4228 -36.7089 -36.7075 -36.6914 -35.5481 -35.5168
   -35.5127 -35.4721 -35.4682 -35.4596   9.2234  11.7223  12.6763  13.7095
    14.0444  14.6088  14.9007  15.0821  15.4740  16.0092  16.2011  16.3478
    16.3783  16.8110  17.1994  17.6169  17.7926  18.2091  18.2505

          k = 1.0096-0.6057-0.2019 (  2042 PWs)   bands (ev):

   -70.6383 -69.4262 -69.4231 -36.7090 -36.7022 -36.6958 -35.5409 -35.5220
   -35.5016 -35.4840 -35.4674 -35.4624   9.0581  11.7898  12.6886  13.4843
    14.0275  14.7310  14.9079  14.9679  15.6490  15.8521  15.9963  16.4060
    16.6050  16.7091  17.3027  17.7562  17.8252  18.3755  18.5626

 ------ SPIN DOWN ----------


          k = 0.0000 0.0000 0.0000 (  2085 PWs)   bands (ev):

   -67.8652 -67.8287 -67.6186 -33.9968 -33.9968 -33.9968 -33.9944 -33.9944
   -33.9944 -33.6891 -33.6891 -33.6891   6.4088  14.1813  14.1813  14.1813
    14.8964  14.8964  16.3089  16.3089  16.3089  18.5069  18.5069  18.5069
    19.4513  19.4513  19.5320  19.5320  21.9646  22.6812  22.6812

          k =-0.2019 0.2019 0.2019 (  2028 PWs)   bands (ev):

   -67.8590 -67.8300 -67.6222 -34.0337 -34.0237 -34.0237 -33.9730 -33.9730
   -33.9483 -33.7004 -33.6839 -33.6839   6.9542  13.4347  14.0959  14.0959
    15.3550  15.3550  15.9989  16.2564  16.2564  17.9952  18.1323  18.1323
    19.4004  19.4004  19.4613  19.4613  21.3528  22.6765  22.6772

          k =-0.4038 0.4038 0.4038 (  2039 PWs)   bands (ev):

   -67.8470 -67.8355 -67.6290 -34.0429 -34.0429 -34.0257 -33.9625 -33.9625
   -33.9531 -33.7067 -33.6756 -33.6756   8.3202  11.5920  14.1084  14.1084
    15.8594  15.9646  15.9646  16.3355  16.3355  17.4452  17.5211  17.5211
    19.1260  19.1260  19.3885  19.3885  19.5096  22.7176  22.7176

          k = 0.0000 0.0000 0.4038 (  2037 PWs)   bands (ev):

   -67.8573 -67.8305 -67.6237 -34.0526 -34.0526 -34.0016 -33.9659 -33.9497
   -33.9497 -33.7152 -33.6785 -33.6785   7.1297  13.0387  14.4553  14.4553
    15.2514  15.2934  15.6321  16.3531  16.3531  17.8971  17.8971  18.2333
    19.1684  19.3954  19.4335  19.5568  21.0403  21.6501  21.6501

          k =-0.2019 0.2019 0.6057 (  2056 PWs)   bands (ev):

   -67.8481 -67.8340 -67.6298 -34.0701 -34.0642 -34.0161 -33.9504 -33.9402
   -33.9400 -33.7208 -33.6749 -33.6708   8.2155  12.1834  13.8219  14.5126
    15.2411  15.7800  15.8282  16.3112  16.5209  17.4011  17.4290  18.1313
    18.9749  19.1929  19.2528  19.4394  19.8755  20.6312  20.9140

          k = 0.6057-0.6057-0.2019 (  2048 PWs)   bands (ev):

   -67.8416 -67.8380 -67.6321 -34.0617 -34.0609 -34.0182 -33.9757 -33.9481
   -33.9296 -33.7004 -33.6829 -33.6714   8.9436  11.5764  13.3896  14.2727
    15.2490  16.0013  16.2130  16.6223  16.6899  17.2166  17.2768  17.5043
    18.8894  19.2023  19.2266  19.3368  19.4074  20.5760  21.0043

          k = 0.4038-0.4038 0.0000 (  2027 PWs)   bands (ev):

   -67.8514 -67.8327 -67.6272 -34.0530 -34.0385 -34.0329 -33.9685 -33.9553
   -33.9337 -33.7071 -33.6795 -33.6780   7.7795  12.6611  13.9637  14.0086
    15.3452  15.8393  15.9577  16.0725  16.5271  17.3743  17.8181  17.9483
    19.1593  19.2712  19.4107  19.4556  20.6799  20.7772  21.9076

          k = 0.0000 0.0000 0.8077 (  2048 PWs)   bands (ev):

   -67.8443 -67.8343 -67.6331 -34.0947 -34.0947 -34.0111 -33.9230 -33.9230
   -33.9196 -33.7552 -33.6637 -33.6637   8.8216  11.8158  14.5169  14.5223
    15.0271  15.0271  16.2490  16.2685  16.2685  17.5141  17.5141  18.2567
    18.4006  19.0423  19.3783  19.4049  19.6200  19.6200  19.8223

          k = 0.8077-0.8077 0.0000 (  2051 PWs)   bands (ev):

   -67.8406 -67.8366 -67.6347 -34.0909 -34.0888 -34.0075 -33.9570 -33.9265
[...]
        k(    5) = (  -0.2019155   0.2019155   0.6057465), wk =   0.1920000
        k(    6) = (   0.6057465  -0.6057465  -0.2019155), wk =   0.1920000
        k(    7) = (   0.4038310  -0.4038310   0.0000000), wk =   0.0960000
        k(    8) = (   0.0000000   0.0000000   0.8076621), wk =   0.0480000
        k(    9) = (   0.8076621  -0.8076621   0.0000000), wk =   0.0960000
        k(   10) = (   1.0095776  -0.6057465  -0.2019155), wk =   0.1920000

     Dense  grid:    44975 G-vectors     FFT dimensions: (  50,  50,  50)

     Smooth grid:    16049 G-vectors     FFT dimensions: (  36,  36,  36)

     Estimated max dynamical RAM per process >      58.93 MB

     Estimated total dynamical RAM >     235.73 MB

     Check: negative core charge=   -0.000063
     Generating pointlists ...

     Initial potential from superposition of free atoms

     starting charge      51.9981, renormalised to      52.0000
     Starting wfcs are   43 randomized atomic wfcs
     Checking if some PAW data can be deallocated... 

     total cpu time spent up to now is      159.9 secs

     per-process dynamical memory:    62.0 Mb

     Self-consistent Calculation

     iteration #  1     ecut=    54.00 Ry     beta= 0.70
     Davidson diagonalization with overlap
     c_bands:  2 eigenvalues not converged
     c_bands:  2 eigenvalues not converged
     c_bands:  1 eigenvalues not converged
     ethr =  1.00E-06,  avg # of iterations = 15.4

     negative rho (up, down):  0.000E+00 3.599E-05

     total cpu time spent up to now is      165.4 secs

     total energy              =    -999.25947334 Ry
     estimated scf accuracy    <       0.09887495 Ry

     total magnetization       =     5.15 Bohr mag/cell
     absolute magnetization    =     5.39 Bohr mag/cell

     iteration #  2     ecut=    54.00 Ry     beta= 0.70
     Davidson diagonalization with overlap
     ethr =  1.90E-04,  avg # of iterations =  4.0

     negative rho (up, down):  0.000E+00 1.783E-05

     total cpu time spent up to now is      167.0 secs

     total energy              =    -999.02848164 Ry
     estimated scf accuracy    <       3.19896280 Ry

     total magnetization       =     4.86 Bohr mag/cell
     absolute magnetization    =     5.08 Bohr mag/cell

     iteration #  3     ecut=    54.00 Ry     beta= 0.70
     Davidson diagonalization with overlap
     ethr =  1.90E-04,  avg # of iterations =  3.9

     negative rho (up, down):  0.000E+00 5.182E-05

     total cpu time spent up to now is      168.6 secs

     total energy              =    -999.28204099 Ry
     estimated scf accuracy    <       0.40400838 Ry

     total magnetization       =     4.94 Bohr mag/cell
     absolute magnetization    =     5.33 Bohr mag/cell

     iteration #  4     ecut=    54.00 Ry     beta= 0.70
     Davidson diagonalization with overlap
     ethr =  1.90E-04,  avg # of iterations =  1.6

     negative rho (up, down):  0.000E+00 8.309E-05

     total cpu time spent up to now is      169.9 secs

     total energy              =    -999.29812835 Ry
     estimated scf accuracy    <       0.03158582 Ry

     total magnetization       =     4.99 Bohr mag/cell
     absolute magnetization    =     5.39 Bohr mag/cell

     iteration #  5     ecut=    54.00 Ry     beta= 0.70
     Davidson diagonalization with overlap
     ethr =  6.07E-05,  avg # of iterations =  1.6

     negative rho (up, down):  0.000E+00 1.069E-04

     total cpu time spent up to now is      171.2 secs

     total energy              =    -999.29942760 Ry
     estimated scf accuracy    <       0.01529743 Ry

     total magnetization       =     4.99 Bohr mag/cell
     absolute magnetization    =     5.40 Bohr mag/cell

     iteration #  6     ecut=    54.00 Ry     beta= 0.70
     Davidson diagonalization with overlap
     ethr =  2.94E-05,  avg # of iterations =  1.7

     negative rho (up, down):  0.000E+00 1.166E-04

     total cpu time spent up to now is      172.5 secs

     total energy              =    -999.30020713 Ry
     estimated scf accuracy    <       0.00653005 Ry

     total magnetization       =     5.00 Bohr mag/cell
     absolute magnetization    =     5.44 Bohr mag/cell

     iteration #  7     ecut=    54.00 Ry     beta= 0.70
     Davidson diagonalization with overlap
     ethr =  1.26E-05,  avg # of iterations =  1.6

     negative rho (up, down):  0.000E+00 1.247E-04

     total cpu time spent up to now is      173.8 secs

     total energy              =    -999.30065076 Ry
     estimated scf accuracy    <       0.00064521 Ry

     total magnetization       =     5.04 Bohr mag/cell
     absolute magnetization    =     5.46 Bohr mag/cell

     iteration #  8     ecut=    54.00 Ry     beta= 0.70
     Davidson diagonalization with overlap
     ethr =  1.24E-06,  avg # of iterations =  4.1

     negative rho (up, down):  0.000E+00 1.308E-04

     total cpu time spent up to now is      175.3 secs

     total energy              =    -999.30080069 Ry
     estimated scf accuracy    <       0.00002440 Ry

     total magnetization       =     5.06 Bohr mag/cell
     absolute magnetization    =     5.48 Bohr mag/cell

     iteration #  9     ecut=    54.00 Ry     beta= 0.70
     Davidson diagonalization with overlap
     ethr =  4.69E-08,  avg # of iterations =  5.0

     negative rho (up, down):  0.000E+00 1.295E-04

     total cpu time spent up to now is      177.3 secs

     total energy              =    -999.30084414 Ry
     estimated scf accuracy    <       0.00000754 Ry

     total magnetization       =     5.07 Bohr mag/cell
     absolute magnetization    =     5.49 Bohr mag/cell

     iteration # 10     ecut=    54.00 Ry     beta= 0.70
     Davidson diagonalization with overlap
     ethr =  1.45E-08,  avg # of iterations =  2.5

     negative rho (up, down):  0.000E+00 1.298E-04

     total cpu time spent up to now is      178.7 secs

     total energy              =    -999.30084650 Ry
     estimated scf accuracy    <       0.00000207 Ry

     total magnetization       =     5.07 Bohr mag/cell
     absolute magnetization    =     5.49 Bohr mag/cell

     iteration # 11     ecut=    54.00 Ry     beta= 0.70
     Davidson diagonalization with overlap
     ethr =  3.99E-09,  avg # of iterations =  1.6

     negative rho (up, down):  0.000E+00 1.299E-04

     total cpu time spent up to now is      180.0 secs

     total energy              =    -999.30084660 Ry
     estimated scf accuracy    <       0.00000076 Ry

     total magnetization       =     5.07 Bohr mag/cell
     absolute magnetization    =     5.49 Bohr mag/cell

     iteration # 12     ecut=    54.00 Ry     beta= 0.70
     Davidson diagonalization with overlap
     ethr =  1.46E-09,  avg # of iterations =  2.4

     negative rho (up, down):  0.000E+00 1.299E-04

     total cpu time spent up to now is      181.4 secs

     total energy              =    -999.30084670 Ry
     estimated scf accuracy    <          6.8E-09 Ry

     total magnetization       =     5.07 Bohr mag/cell
     absolute magnetization    =     5.49 Bohr mag/cell

     iteration # 13     ecut=    54.00 Ry     beta= 0.70
     Davidson diagonalization with overlap
     ethr =  1.32E-11,  avg # of iterations =  8.5

     negative rho (up, down):  0.000E+00 1.299E-04

     total cpu time spent up to now is      184.4 secs

     total energy              =    -999.30084673 Ry
     estimated scf accuracy    <          2.4E-09 Ry

     total magnetization       =     5.07 Bohr mag/cell
     absolute magnetization    =     5.49 Bohr mag/cell

     iteration # 14     ecut=    54.00 Ry     beta= 0.70
     Davidson diagonalization with overlap
     ethr =  4.54E-12,  avg # of iterations =  2.2

     negative rho (up, down):  0.000E+00 1.299E-04

     total cpu time spent up to now is      185.7 secs

     total energy              =    -999.30084673 Ry
     estimated scf accuracy    <          4.3E-10 Ry

     total magnetization       =     5.07 Bohr mag/cell
     absolute magnetization    =     5.49 Bohr mag/cell

     iteration # 15     ecut=    54.00 Ry     beta= 0.70
     Davidson diagonalization with overlap
     ethr =  8.27E-13,  avg # of iterations =  3.4

     negative rho (up, down):  0.000E+00 1.299E-04

     Magnetic moment per site  (integrated on atomic sphere of radius R)
     atom   1 (R=0.177)  charge= 14.3417  magn=  2.5386
     atom   2 (R=0.177)  charge= 14.4477  magn=  1.3430
     atom   3 (R=0.177)  charge= 14.4477  magn=  1.3430
     atom   4 (R=0.177)  charge=  2.0162  magn= -0.0592

     total cpu time spent up to now is      187.2 secs

     End of self-consistent calculation

 ------ SPIN UP ------------


          k = 0.0000 0.0000 0.0000 (  1989 PWs)   bands (ev):

   -70.6397 -69.4315 -69.4136 -36.6975 -36.6975 -36.6975 -35.5347 -35.5347
   -35.5347 -35.4596 -35.4596 -35.4596   6.3969  13.3749  13.3749  13.6425
    13.6425  13.6425  14.7590  14.7590  14.7590  16.7652  16.7652  17.3336
    17.3336  17.3336  17.7366  17.7366  21.7684  22.2613  22.2613

          k =-0.2019 0.2019 0.2019 (  1982 PWs)   bands (ev):

   -70.6390 -69.4296 -69.4161 -36.6994 -36.6994 -36.6975 -35.5270 -35.5270
   -35.5227 -35.4733 -35.4656 -35.4656   6.9460  13.0696  13.1316  13.1316
    14.2607  14.2607  14.5840  14.7479  14.7479  16.6877  16.6877  16.8809
    17.0019  17.0019  17.6946  17.6946  20.1090  21.8989  21.8989

          k =-0.4038 0.4038 0.4038 (  1994 PWs)   bands (ev):

   -70.6381 -69.4261 -69.4209 -36.7025 -36.7025 -36.6970 -35.5094 -35.5094
   -35.5052 -35.4938 -35.4804 -35.4804   8.3265  11.4233  13.1004  13.1004
    14.5471  14.5621  14.5621  15.2734  15.2734  16.3226  16.3226  16.5116
    16.7582  16.7582  17.3854  17.3854  17.9458  21.6960  21.6960

          k = 0.0000 0.0000 0.4038 (  1992 PWs)   bands (ev):

   -70.6389 -69.4295 -69.4167 -36.7018 -36.7018 -36.6941 -35.5299 -35.5299
   -35.5084 -35.4913 -35.4605 -35.4605   7.1210  12.3362  13.7182  13.9548
    13.9548  14.1578  14.3030  14.8561  14.8561  16.4808  16.7866  16.8078
    16.8078  16.9489  17.6987  17.7215  20.3341  20.5464  20.5464

          k =-0.2019 0.2019 0.6057 (  1984 PWs)   bands (ev):

   -70.6378 -69.4273 -69.4196 -36.7051 -36.7039 -36.6939 -35.5222 -35.5193
   -35.5161 -35.4847 -35.4681 -35.4676   8.2041  11.7795  13.1844  13.6159
    14.1862  14.5053  14.7549  14.9069  15.2382  16.1347  16.2905  16.5468
    16.6338  16.9176  17.5090  17.5337  18.4388  19.5293  19.7283

          k = 0.6057-0.6057-0.2019 (  1987 PWs)   bands (ev):

   -70.6375 -69.4243 -69.4230 -36.7047 -36.7019 -36.6979 -35.5293 -35.5123
   -35.5016 -35.4862 -35.4814 -35.4665   8.9265  11.3923  12.7874  13.2900
    14.2416  14.5421  14.7763  15.4288  15.6516  16.0174  16.0401  16.3223
    16.5826  16.6143  17.5103  17.5215  17.7314  19.2541  19.8988

          k = 0.4038-0.4038 0.0000 (  1985 PWs)   bands (ev):

   -70.6382 -69.4280 -69.4186 -36.7017 -36.7012 -36.6979 -35.5291 -35.5107
   -35.5017 -35.4968 -35.4803 -35.4604   7.7737  12.2467  12.9939  13.5820
    14.0402  14.5467  14.5821  14.9717  14.9775  16.2408  16.5512  16.5557
    16.7503  16.8251  17.5233  17.7517  19.3811  19.4359  21.0671

          k = 0.0000 0.0000 0.8077 (  1996 PWs)   bands (ev):

   -70.6375 -69.4276 -69.4200 -36.7088 -36.7088 -36.6882 -35.5427 -35.5198
   -35.5198 -35.4655 -35.4641 -35.4641   8.7652  11.4566  13.4441  13.9602
    14.5684  14.5684  14.6093  15.0356  15.0356  15.6840  16.3484  16.4692
    16.4692  16.9377  17.3959  17.6973  18.1839  18.1839  18.4005

          k = 0.8077-0.8077 0.0000 (  1996 PWs)   bands (ev):

   -70.6372 -69.4261 -69.4218 -36.7086 -36.7072 -36.6911 -35.5478 -35.5165
   -35.5124 -35.4718 -35.4679 -35.4593   9.2238  11.7231  12.6769  13.7100
    14.0448  14.6090  14.9012  15.0830  15.4743  16.0097  16.2016  16.3483
    16.3788  16.8114  17.1998  17.6173  17.7929  18.2095  18.2509

          k = 1.0096-0.6057-0.2019 (  1982 PWs)   bands (ev):

   -70.6372 -69.4253 -69.4221 -36.7087 -36.7018 -36.6955 -35.5406 -35.5216
   -35.5012 -35.4837 -35.4671 -35.4621   9.0589  11.7905  12.6892  13.4851
    14.0277  14.7316  14.9084  14.9686  15.6495  15.8525  15.9966  16.4066
    16.6053  16.7094  17.3031  17.7569  17.8256  18.3760  18.5631

 ------ SPIN DOWN ----------


          k = 0.0000 0.0000 0.0000 (  1989 PWs)   bands (ev):

   -67.8648 -67.8268 -67.6178 -33.9965 -33.9965 -33.9965 -33.9941 -33.9941
   -33.9941 -33.6888 -33.6888 -33.6888   6.4088  14.1822  14.1822  14.1822
    14.8966  14.8966  16.3108  16.3108  16.3108  18.5078  18.5078  18.5078
    19.4518  19.4518  19.5325  19.5325  21.9650  22.6814  22.6814

          k =-0.2019 0.2019 0.2019 (  1982 PWs)   bands (ev):

   -67.8582 -67.8293 -67.6217 -34.0333 -34.0233 -34.0233 -33.9727 -33.9727
   -33.9479 -33.7002 -33.6837 -33.6837   6.9544  13.4355  14.0961  14.0961
    15.3554  15.3554  15.9992  16.2567  16.2567  17.9956  18.1327  18.1327
    19.4008  19.4008  19.4618  19.4618  21.3533  22.3596  22.6776

          k =-0.4038 0.4038 0.4038 (  1994 PWs)   bands (ev):

   -67.8460 -67.8350 -67.6284 -34.0426 -34.0426 -34.0254 -33.9621 -33.9621
   -33.9527 -33.7065 -33.6753 -33.6753   8.3206  11.5922  14.1087  14.1087
    15.8596  15.9648  15.9648  16.3358  16.3358  17.4456  17.5213  17.5213
    19.1263  19.1263  19.3889  19.3889  19.5098  22.7155  22.7180

          k = 0.0000 0.0000 0.4038 (  1992 PWs)   bands (ev):

   -67.8564 -67.8298 -67.6231 -34.0523 -34.0523 -34.0012 -33.9656 -33.9493
   -33.9493 -33.7150 -33.6782 -33.6782   7.1300  13.0388  14.4556  14.4556
    15.2520  15.2936  15.6323  16.3533  16.3533  17.8974  17.8974  18.2336
    19.1689  19.3957  19.4339  19.5573  21.0419  21.6504  21.6504

          k =-0.2019 0.2019 0.6057 (  1984 PWs)   bands (ev):

   -67.8470 -67.8331 -67.6290 -34.0698 -34.0639 -34.0157 -33.9500 -33.9398
   -33.9396 -33.7206 -33.6746 -33.6706   8.2160  12.1838  13.8228  14.5132
    15.2418  15.7805  15.8285  16.3116  16.5214  17.4015  17.4294  18.1318
    18.9753  19.1932  19.2532  19.4399  19.8761  20.6320  20.9149

          k = 0.6057-0.6057-0.2019 (  1987 PWs)   bands (ev):

   -67.8407 -67.8371 -67.6314 -34.0613 -34.0606 -34.0178 -33.9754 -33.9477
   -33.9292 -33.7001 -33.6827 -33.6712   8.9441  11.5770  13.3903  14.2731
    15.2495  16.0016  16.2132  16.6232  16.6904  17.2170  17.2771  17.5047
    18.8898  19.2027  19.2270  19.3371  19.4077  20.5767  21.0057

          k = 0.4038-0.4038 0.0000 (  1985 PWs)   bands (ev):

   -67.8505 -67.8320 -67.6267 -34.0526 -34.0382 -34.0325 -33.9681 -33.9549
   -33.9333 -33.7069 -33.6793 -33.6778   7.7800  12.6616  13.9642  14.0090
    15.3453  15.8394  15.9581  16.0730  16.5276  17.3746  17.8185  17.9487
    19.1597  19.2716  19.4111  19.4559  20.6804  20.7775  21.9081

          k = 0.0000 0.0000 0.8077 (  1996 PWs)   bands (ev):

   -67.8435 -67.8335 -67.6325 -34.0944 -34.0944 -34.0108 -33.9226 -33.9226
   -33.9192 -33.7550 -33.6634 -33.6634   8.8219  11.8160  14.5171  14.5226
    15.0279  15.0279  16.2492  16.2687  16.2687  17.5145  17.5145  18.2571
    18.4008  19.0425  19.3788  19.4053  19.6203  19.6203  19.8227

          k = 0.8077-0.8077 0.0000 (  1996 PWs)   bands (ev):

   -67.8399 -67.8356 -67.6340 -34.0906 -34.0885 -34.0072 -33.9566 -33.9261
   -33.9130 -33.7305 -33.6705 -33.6638   9.3246  11.9248  13.0672  14.4557
    14.8252  15.9835  16.0752  16.3909  16.7922  17.2354  17.3569  17.9868
    18.5593  18.8699  19.2786  19.3094  19.4123  19.6557  19.7848

          k = 1.0096-0.6057-0.2019 (  1982 PWs)   bands (ev):

   -67.8404 -67.8357 -67.6330 -34.0960 -34.0466 -34.0208 -33.9823 -33.9244
   -33.9183 -33.7107 -33.6824 -33.6650   9.1179  12.0981  13.0816  14.0201
    15.1332  16.0345  16.1839  16.3135  16.9687  17.1287  17.1832  17.8889
    18.7847  19.0085  19.2225  19.3430  19.4794  19.9069  19.9550

     the Fermi energy is    17.9861 ev

!    total energy              =    -999.30084673 Ry
     estimated scf accuracy    <          6.5E-11 Ry
     smearing contrib. (-TS)   =       0.00012736 Ry
     internal energy E=F+TS    =    -999.30097409 Ry

     The total energy is F=E-TS. E is the sum of the following terms:
     one-electron contribution =    -384.02080230 Ry
     hartree contribution      =     226.56043958 Ry
     xc contribution           =    -110.94269413 Ry
     ewald contribution        =    -502.44947045 Ry
     one-center paw contrib.   =    -228.44844680 Ry

     total magnetization       =     5.07 Bohr mag/cell
     absolute magnetization    =     5.49 Bohr mag/cell

     convergence has been achieved in  15 iterations

     negative rho (up, down):  0.000E+00 1.299E-04

     Forces acting on atoms (cartesian axes, Ry/au):

     atom    1 type  2   force =     0.00000000    0.00000000    0.00000000
     atom    2 type  2   force =    -0.00000000   -0.00000000   -0.00000000
     atom    3 type  2   force =    -0.00000000    0.00000000    0.00000000
     atom    4 type  1   force =     0.00000000    0.00000000    0.00000000

     Total force =     0.000000     Total SCF correction =     0.000000


     Computing stress (Cartesian axis) and pressure


     negative rho (up, down):  0.000E+00 1.299E-04
          total   stress  (Ry/bohr**3)                   (kbar)     P=       -5.41
  -0.00003680  -0.00000000   0.00000000           -5.41       -0.00        0.00
   0.00000000  -0.00003680  -0.00000000            0.00       -5.41       -0.00
  -0.00000000  -0.00000000  -0.00003680           -0.00       -0.00       -5.41


     Writing all to output data dir ./file.save/

     init_run     :      4.13s CPU      4.18s WALL (       2 calls)
     electrons    :    170.15s CPU    171.25s WALL (       4 calls)
     update_pot   :      2.62s CPU      2.62s WALL (       2 calls)
     forces       :      3.62s CPU      3.62s WALL (       4 calls)
     stress       :      7.20s CPU      7.21s WALL (       4 calls)

     Called by init_run:
     wfcinit      :      0.83s CPU      0.84s WALL (       2 calls)
     potinit      :      1.27s CPU      1.29s WALL (       2 calls)
     hinit0       :      1.77s CPU      1.78s WALL (       2 calls)

     Called by electrons:
     c_bands      :    105.27s CPU    106.12s WALL (     109 calls)
     sum_band     :     20.19s CPU     20.36s WALL (     109 calls)
     v_of_rho     :      4.22s CPU      4.24s WALL (     113 calls)
     newd         :      9.35s CPU      9.39s WALL (     113 calls)
     PAW_pot      :     32.32s CPU     32.36s WALL (     115 calls)
     mix_rho      :      0.54s CPU      0.54s WALL (     109 calls)

     Called by c_bands:
     init_us_2    :      0.97s CPU      0.98s WALL (    4600 calls)
     init_us_2:cp :      0.96s CPU      0.97s WALL (    4600 calls)
     cegterg      :    101.81s CPU    102.64s WALL (    2180 calls)

     Called by *egterg:
     cdiaghg      :      9.46s CPU      9.50s WALL (    8391 calls)
     h_psi        :     54.22s CPU     54.91s WALL (    8471 calls)
     s_psi        :      8.83s CPU      8.86s WALL (    8471 calls)
     g_psi        :      0.40s CPU      0.40s WALL (    6251 calls)

     Called by h_psi:
     h_psi:calbec :      9.34s CPU      9.47s WALL (    8471 calls)
     vloc_psi     :     35.71s CPU     36.19s WALL (    8471 calls)
     add_vuspsi   :      8.80s CPU      8.88s WALL (    8471 calls)

     General routines
     calbec       :     13.18s CPU     13.35s WALL (   11091 calls)
     fft          :      1.41s CPU      1.42s WALL (    2979 calls)
     ffts         :      0.17s CPU      0.17s WALL (     444 calls)
     fftw         :     37.11s CPU     37.61s WALL (  431304 calls)
     interpolate  :      0.27s CPU      0.27s WALL (     226 calls)

     Parallel routines

     PWSCF        :   3m 8.73s CPU   3m 9.93s WALL


   This run was terminated on:  20:32:55   1Nov2022            

=------------------------------------------------------------------------------=
   JOB DONE.
=------------------------------------------------------------------------------=
