
     Program PWSCF v.7.1 starts on 26Nov2022 at 21:32:47 

     This program is part of the open-source Quantum ESPRESSO suite
     for quantum simulation of materials; please cite
         "P. Giannozzi et al., J. Phys.:Condens. Matter 21 395502 (2009);
         "P. Giannozzi et al., J. Phys.:Condens. Matter 29 465901 (2017);
         "P. Giannozzi et al., J. Chem. Phys. 152 154105 (2020);
          URL http://www.quantum-espresso.org", 
     in publications or presentations arising from this work. More details at
     http://www.quantum-espresso.org/quote

     Parallel version (MPI), running on     1 processors

     MPI processes distributed on     1 nodes
     1052 MiB available memory on the printing compute node when the environment starts
 
     Waiting for input...
     Reading input from standard input

     Current dimensions of program PWSCF are:
     Max number of different atomic species (ntypx) = 10
     Max number of k-points (npk) =  40000
     Max angular momentum in pseudopotentials (lmaxx) =  4
     file Fe.pbe-spn-kjpaw_psl.0.2.1.UPF: wavefunction(s)  3D renormalized

     IMPORTANT: XC functional enforced from input :
     Exchange-correlation= PBE
                           (   1   4   3   4   0   0   0)
     Any further DFT definition will be discarded
     Please, verify this is what you really want

     Found identity + ( -0.5000 -0.5000 -0.5000) symmetry
     This is a supercell, fractional translations are disabled
     Message from routine setup:
     using ibrav=0 with symmetry is DISCOURAGED, use correct ibrav instead
 
     Subspace diagonalization in iterative solution of the eigenvalue problem:
     a serial algorithm will be used

 
     G-vector sticks info
     --------------------
     sticks:   dense  smooth     PW     G-vecs:    dense   smooth      PW
     Sum        7847    3895   1083               369801   130447   18805
 
     Using Slab Decomposition
 


     bravais-lattice index     =            0
     lattice parameter (alat)  =      10.6864  a.u.
     unit-cell volume          =    2440.7563 (a.u.)^3
     number of atoms/cell      =           32
     number of atomic types    =            2
     number of electrons       =       488.00
     number of Kohn-Sham states=          293
     kinetic-energy cutoff     =      54.0000  Ry
     charge density cutoff     =     432.0000  Ry
     scf convergence threshold =      1.0E-08
     mixing beta               =       0.7000
     number of iterations used =            8  plain     mixing
     energy convergence thresh.=      1.0E-04
     force convergence thresh. =      1.0E-03
     press convergence thresh. =      5.0E-01
     Exchange-correlation= PBE
                           (   1   4   3   4   0   0   0)
     nstep                     =           50


     GPU acceleration is ACTIVE.


     celldm(1)=  10.686401  celldm(2)=   0.000000  celldm(3)=   0.000000
     celldm(4)=   0.000000  celldm(5)=   0.000000  celldm(6)=   0.000000

     crystal axes: (cart. coord. in units of alat)
               a(1) = (   2.000000   0.000000   0.000000 )  
               a(2) = (   0.000000   1.000000   0.000000 )  
               a(3) = (   0.000000   0.000000   1.000000 )  

     reciprocal axes: (cart. coord. in units 2 pi/alat)
               b(1) = (  0.500000  0.000000  0.000000 )  
               b(2) = (  0.000000  1.000000  0.000000 )  
               b(3) = (  0.000000  0.000000  1.000000 )  


     PseudoPot. # 1 for Si read from file:
     ./Si.pbe-n-rrkjus_psl.1.0.0.UPF
     MD5 check sum: 0b0bb1205258b0d07b9f9672cf965d36
     Pseudo is Ultrasoft + core correction, Zval =  4.0
     Generated using "atomic" code by A. Dal Corso  v.5.1
     Using radial grid of 1141 points,  6 beta functions with: 
                l(1) =   0
                l(2) =   0
                l(3) =   1
                l(4) =   1
                l(5) =   2
                l(6) =   2
     Q(r) pseudized with 0 coefficients 


     PseudoPot. # 2 for Fe read from file:
     ./Fe.pbe-spn-kjpaw_psl.0.2.1.UPF
     MD5 check sum: e86618425769142926afa95317d90200
     Pseudo is Projector augmented-wave + core cor, Zval = 16.0
     Generated using "atomic" code by A. Dal Corso  v.5.0.99 svn rev. 10869
     Shape of augmentation charge: PSQ
     Using radial grid of 1191 points,  6 beta functions with: 
                l(1) =   0
                l(2) =   0
                l(3) =   1
                l(4) =   1
                l(5) =   2
                l(6) =   2
     Q(r) pseudized with 0 coefficients 


     atomic species   valence    mass     pseudopotential
        Si             4.00    28.08500     Si( 1.00)
        Fe            16.00    55.84500     Fe( 1.00)

     Starting magnetic structure 
     atomic species   magnetization
        Si           1.000
        Fe           1.000

      8 Sym. Ops. (no inversion) found



   Cartesian axes

     site n.     atom                  positions (alat units)
         1           Fe  tau(   1) = (   0.5000000   0.5000000   0.5000000  )
         2           Fe  tau(   2) = (   0.5000000   1.0000000   1.0000000  )
         3           Fe  tau(   3) = (   1.0000000   0.5000000   1.0000000  )
         4           Fe  tau(   4) = (   1.0000000   1.0000000   0.5000000  )
         5           Fe  tau(   5) = (   0.2500000   0.2500000   0.2500000  )
         6           Fe  tau(   6) = (   0.2500000   0.7500000   0.7500000  )
         7           Fe  tau(   7) = (   0.7500000   0.2500000   0.7500000  )
         8           Fe  tau(   8) = (   0.7500000   0.7500000   0.2500000  )
         9           Fe  tau(   9) = (   0.7500000   0.7500000   0.7500000  )
        10           Fe  tau(  10) = (   0.7500000   0.2500000   0.2500000  )
        11           Fe  tau(  11) = (   0.2500000   0.7500000   0.2500000  )
        12           Fe  tau(  12) = (   0.2500000   0.2500000   0.7500000  )
        13           Fe  tau(  13) = (   0.0000000   0.0000000   0.0000000  )
        14           Fe  tau(  14) = (   0.0000000   0.5000000   0.5000000  )
        15           Si  tau(  15) = (   0.5000000   0.0000000   0.5000000  )
        16           Fe  tau(  16) = (   0.5000000   0.5000000   0.0000000  )
        17           Fe  tau(  17) = (   1.5000000   0.5000000   0.5000000  )
        18           Fe  tau(  18) = (   1.5000000   1.0000000   1.0000000  )
        19           Fe  tau(  19) = (   2.0000000   0.5000000   1.0000000  )
        20           Fe  tau(  20) = (   2.0000000   1.0000000   0.5000000  )
        21           Fe  tau(  21) = (   1.2500000   0.2500000   0.2500000  )
        22           Fe  tau(  22) = (   1.2500000   0.7500000   0.7500000  )
        23           Fe  tau(  23) = (   1.7500000   0.2500000   0.7500000  )
        24           Fe  tau(  24) = (   1.7500000   0.7500000   0.2500000  )
        25           Fe  tau(  25) = (   1.7500000   0.7500000   0.7500000  )
        26           Fe  tau(  26) = (   1.7500000   0.2500000   0.2500000  )
        27           Fe  tau(  27) = (   1.2500000   0.7500000   0.2500000  )
        28           Fe  tau(  28) = (   1.2500000   0.2500000   0.7500000  )
        29           Fe  tau(  29) = (   1.0000000   0.0000000   0.0000000  )
        30           Fe  tau(  30) = (   1.0000000   0.5000000   0.5000000  )
        31           Fe  tau(  31) = (   1.5000000   0.0000000   0.5000000  )
        32           Si  tau(  32) = (   1.5000000   0.5000000   0.0000000  )

     number of k points=    12  Marzari-Vanderbilt smearing, width (Ry)=  0.0050
                       cart. coord. in units 2pi/alat
        k(    1) = (   0.0000000   0.0000000   0.0000000), wk =   0.0133333
        k(    2) = (   0.0000000   0.0000000   0.2000000), wk =   0.0533333
        k(    3) = (   0.0000000   0.0000000   0.4000000), wk =   0.0533333
        k(    4) = (   0.0000000   0.2000000   0.2000000), wk =   0.0533333
        k(    5) = (   0.0000000   0.2000000   0.4000000), wk =   0.1066667
        k(    6) = (   0.0000000   0.4000000   0.4000000), wk =   0.0533333
        k(    7) = (   0.1666667   0.0000000   0.0000000), wk =   0.0266667
        k(    8) = (   0.1666667   0.0000000   0.2000000), wk =   0.1066667
        k(    9) = (   0.1666667   0.0000000   0.4000000), wk =   0.1066667
        k(   10) = (   0.1666667   0.2000000   0.2000000), wk =   0.1066667
        k(   11) = (   0.1666667   0.2000000   0.4000000), wk =   0.2133333
        k(   12) = (   0.1666667   0.4000000   0.4000000), wk =   0.1066667

     Dense  grid:   369801 G-vectors     FFT dimensions: ( 144,  72,  72)

     Smooth grid:   130447 G-vectors     FFT dimensions: ( 100,  50,  50)

     Estimated max dynamical RAM per process >       3.80 GB

     Check: negative core charge=   -0.000076
     Generating pointlists ...
     new r_m :   0.1786 (alat units)  1.9088 (a.u.) for type    1
     new r_m :   0.1786 (alat units)  1.9088 (a.u.) for type    2

     Initial potential from superposition of free atoms

     starting charge     487.9857, renormalised to     488.0000
     Starting wfcs are  398 randomized atomic wfcs
     Checking if some PAW data can be deallocated... 

     total cpu time spent up to now is      300.7 secs

     Self-consistent Calculation

     iteration #  1     ecut=    54.00 Ry     beta= 0.70
     Davidson diagonalization with overlap
     ethr =  1.00E-02,  avg # of iterations =  2.6

     negative rho (up, down):  0.000E+00 6.342E-03

     total cpu time spent up to now is      398.7 secs

     total energy              =   -9882.87280007 Ry
     estimated scf accuracy    <     126.16359246 Ry

     total magnetization       =    98.00 Bohr mag/cell
     absolute magnetization    =   127.51 Bohr mag/cell

     iteration #  2     ecut=    54.00 Ry     beta= 0.70
     Davidson diagonalization with overlap
     ethr =  1.00E-02,  avg # of iterations =  3.0

     negative rho (up, down):  0.000E+00 5.298E-03

     total cpu time spent up to now is      482.5 secs

     total energy              =   -9890.62011972 Ry
     estimated scf accuracy    <      29.65292774 Ry

     total magnetization       =    89.53 Bohr mag/cell
     absolute magnetization    =    99.77 Bohr mag/cell

     iteration #  3     ecut=    54.00 Ry     beta= 0.70
     Davidson diagonalization with overlap
     ethr =  6.08E-03,  avg # of iterations =  4.6

     negative rho (up, down):  0.000E+00 5.040E-03

     total cpu time spent up to now is      584.3 secs

     total energy              =   -9868.47640861 Ry
     estimated scf accuracy    <     201.51922733 Ry

     total magnetization       =    47.06 Bohr mag/cell
     absolute magnetization    =    53.29 Bohr mag/cell

     iteration #  4     ecut=    54.00 Ry     beta= 0.70
     Davidson diagonalization with overlap
     ethr =  6.08E-03,  avg # of iterations =  4.6

     negative rho (up, down):  0.000E+00 4.228E-03

     total cpu time spent up to now is      692.9 secs

     total energy              =   -9885.60429134 Ry
     estimated scf accuracy    <     288.43261775 Ry

     total magnetization       =    38.58 Bohr mag/cell
     absolute magnetization    =    44.14 Bohr mag/cell

     iteration #  5     ecut=    54.00 Ry     beta= 0.70
     Davidson diagonalization with overlap
     ethr =  6.08E-03,  avg # of iterations =  4.5

     negative rho (up, down):  0.000E+00 3.963E-03

     total cpu time spent up to now is      794.4 secs

     total energy              =   -9885.14094555 Ry
     estimated scf accuracy    <     883.39220119 Ry

     total magnetization       =    15.53 Bohr mag/cell
     absolute magnetization    =    20.60 Bohr mag/cell

     iteration #  6     ecut=    54.00 Ry     beta= 0.70
     Davidson diagonalization with overlap
     ethr =  6.08E-03,  avg # of iterations =  3.7

     negative rho (up, down):  0.000E+00 3.580E-03

     total cpu time spent up to now is      876.4 secs

     total energy              =   -9896.96847349 Ry
     estimated scf accuracy    <     127.55183205 Ry

     total magnetization       =    42.96 Bohr mag/cell
     absolute magnetization    =    48.08 Bohr mag/cell

     iteration #  7     ecut=    54.00 Ry     beta= 0.70
     Davidson diagonalization with overlap
     ethr =  6.08E-03,  avg # of iterations =  1.8

     negative rho (up, down):  0.000E+00 3.404E-03

     total cpu time spent up to now is      947.5 secs

     total energy              =   -9899.77048858 Ry
     estimated scf accuracy    <       7.86113393 Ry

     total magnetization       =    58.37 Bohr mag/cell
     absolute magnetization    =    62.88 Bohr mag/cell

     iteration #  8     ecut=    54.00 Ry     beta= 0.70
     Davidson diagonalization with overlap
     ethr =  1.61E-03,  avg # of iterations =  3.1

     negative rho (up, down):  0.000E+00 3.175E-03

     total cpu time spent up to now is     1026.4 secs

     total energy              =   -9899.74344812 Ry
     estimated scf accuracy    <      17.85225547 Ry

     total magnetization       =    53.67 Bohr mag/cell
     absolute magnetization    =    58.44 Bohr mag/cell

     iteration #  9     ecut=    54.00 Ry     beta= 0.70
     Davidson diagonalization with overlap
     ethr =  1.61E-03,  avg # of iterations =  1.6

     negative rho (up, down):  0.000E+00 3.287E-03

     total cpu time spent up to now is     1097.6 secs

     total energy              =   -9900.62171274 Ry
     estimated scf accuracy    <       1.39068342 Ry

     total magnetization       =    61.83 Bohr mag/cell
     absolute magnetization    =    65.89 Bohr mag/cell

     iteration # 10     ecut=    54.00 Ry     beta= 0.70
     Davidson diagonalization with overlap
     ethr =  2.85E-04,  avg # of iterations =  5.0

     negative rho (up, down):  0.000E+00 3.389E-03

     total cpu time spent up to now is     1179.4 secs

     total energy              =   -9900.36853596 Ry
     estimated scf accuracy    <      12.65269233 Ry

     total magnetization       =    59.52 Bohr mag/cell
     absolute magnetization    =    63.78 Bohr mag/cell

     iteration # 11     ecut=    54.00 Ry     beta= 0.70
     Davidson diagonalization with overlap
     ethr =  2.85E-04,  avg # of iterations =  2.7

     negative rho (up, down):  0.000E+00 3.303E-03

     total cpu time spent up to now is     1255.3 secs

     total energy              =   -9900.70860831 Ry
     estimated scf accuracy    <       2.36255672 Ry

     total magnetization       =    62.54 Bohr mag/cell
     absolute magnetization    =    66.80 Bohr mag/cell

     iteration # 12     ecut=    54.00 Ry     beta= 0.70
     Davidson diagonalization with overlap
     ethr =  2.85E-04,  avg # of iterations =  1.6

     negative rho (up, down):  0.000E+00 3.199E-03

     total cpu time spent up to now is     1326.0 secs

     total energy              =   -9900.78203557 Ry
     estimated scf accuracy    <       1.04031272 Ry

     total magnetization       =    62.23 Bohr mag/cell
     absolute magnetization    =    66.39 Bohr mag/cell

     iteration # 13     ecut=    54.00 Ry     beta= 0.70
     Davidson diagonalization with overlap
     ethr =  2.13E-04,  avg # of iterations =  2.5

     negative rho (up, down):  0.000E+00 3.227E-03

     total cpu time spent up to now is     1403.2 secs

     total energy              =   -9900.63265102 Ry
     estimated scf accuracy    <       4.17034834 Ry

     total magnetization       =    62.02 Bohr mag/cell
     absolute magnetization    =    65.89 Bohr mag/cell

     iteration # 14     ecut=    54.00 Ry     beta= 0.70
     Davidson diagonalization with overlap
     ethr =  2.13E-04,  avg # of iterations =  2.2

     negative rho (up, down):  0.000E+00 3.358E-03

     total cpu time spent up to now is     1477.5 secs

     total energy              =   -9900.82856941 Ry
     estimated scf accuracy    <       0.85965916 Ry

     total magnetization       =    62.68 Bohr mag/cell
     absolute magnetization    =    66.59 Bohr mag/cell

     iteration # 15     ecut=    54.00 Ry     beta= 0.70
     Davidson diagonalization with overlap
     ethr =  1.76E-04,  avg # of iterations =  1.9

     negative rho (up, down):  0.000E+00 3.356E-03

     total cpu time spent up to now is     1549.0 secs

     total energy              =   -9900.73263608 Ry
     estimated scf accuracy    <       4.54841626 Ry

     total magnetization       =    62.68 Bohr mag/cell
     absolute magnetization    =    66.58 Bohr mag/cell

     iteration # 16     ecut=    54.00 Ry     beta= 0.70
     Davidson diagonalization with overlap
     ethr =  1.76E-04,  avg # of iterations =  2.4

     negative rho (up, down):  0.000E+00 3.390E-03

     total cpu time spent up to now is     1622.6 secs

     total energy              =   -9900.78991332 Ry
     estimated scf accuracy    <       3.65590336 Ry

     total magnetization       =    62.56 Bohr mag/cell
     absolute magnetization    =    66.46 Bohr mag/cell

     iteration # 17     ecut=    54.00 Ry     beta= 0.70
     Davidson diagonalization with overlap
     ethr =  1.76E-04,  avg # of iterations =  1.5

     negative rho (up, down):  0.000E+00 3.441E-03

     total cpu time spent up to now is     1691.4 secs

     total energy              =   -9900.82514881 Ry
     estimated scf accuracy    <       0.75966695 Ry

     total magnetization       =    63.70 Bohr mag/cell
     absolute magnetization    =    67.61 Bohr mag/cell

     iteration # 18     ecut=    54.00 Ry     beta= 0.70
     Davidson diagonalization with overlap
     ethr =  1.56E-04,  avg # of iterations =  2.0

     negative rho (up, down):  0.000E+00 3.462E-03

     total cpu time spent up to now is     1766.2 secs

     total energy              =   -9900.78228917 Ry
     estimated scf accuracy    <       2.02631973 Ry

     total magnetization       =    64.08 Bohr mag/cell
     absolute magnetization    =    67.89 Bohr mag/cell

     iteration # 19     ecut=    54.00 Ry     beta= 0.70
     Davidson diagonalization with overlap
     ethr =  1.56E-04,  avg # of iterations =  1.8

     negative rho (up, down):  0.000E+00 3.503E-03

     total cpu time spent up to now is     1838.6 secs

     total energy              =   -9900.87186735 Ry
     estimated scf accuracy    <       0.16244068 Ry

     total magnetization       =    63.74 Bohr mag/cell
     absolute magnetization    =    67.67 Bohr mag/cell

     iteration # 20     ecut=    54.00 Ry     beta= 0.70
     Davidson diagonalization with overlap
     ethr =  3.33E-05,  avg # of iterations =  6.6

     negative rho (up, down):  0.000E+00 3.510E-03

     total cpu time spent up to now is     1923.8 secs

     total energy              =   -9900.75862870 Ry
     estimated scf accuracy    <       3.85977866 Ry

     total magnetization       =    62.19 Bohr mag/cell
     absolute magnetization    =    66.24 Bohr mag/cell

     iteration # 21     ecut=    54.00 Ry     beta= 0.70
     Davidson diagonalization with overlap
     ethr =  3.33E-05,  avg # of iterations =  2.9

     negative rho (up, down):  0.000E+00 3.515E-03

     total cpu time spent up to now is     2005.8 secs

     total energy              =   -9900.84495800 Ry
     estimated scf accuracy    <       1.08779503 Ry

     total magnetization       =    62.59 Bohr mag/cell
     absolute magnetization    =    66.65 Bohr mag/cell

     iteration # 22     ecut=    54.00 Ry     beta= 0.70
     Davidson diagonalization with overlap
     ethr =  3.33E-05,  avg # of iterations =  1.9

     negative rho (up, down):  0.000E+00 3.548E-03

     total cpu time spent up to now is     2079.7 secs

     total energy              =   -9900.88162887 Ry
     estimated scf accuracy    <       0.06270921 Ry

     total magnetization       =    63.68 Bohr mag/cell
     absolute magnetization    =    67.61 Bohr mag/cell

     iteration # 23     ecut=    54.00 Ry     beta= 0.70
     Davidson diagonalization with overlap
     ethr =  1.29E-05,  avg # of iterations =  2.5

     negative rho (up, down):  0.000E+00 3.572E-03

     total cpu time spent up to now is     2161.4 secs

     total energy              =   -9900.86146407 Ry
     estimated scf accuracy    <       0.57424806 Ry

     total magnetization       =    63.93 Bohr mag/cell
     absolute magnetization    =    67.79 Bohr mag/cell

     iteration # 24     ecut=    54.00 Ry     beta= 0.70
     Davidson diagonalization with overlap
     ethr =  1.29E-05,  avg # of iterations =  2.0

     negative rho (up, down):  0.000E+00 3.664E-03

     total cpu time spent up to now is     2240.2 secs

     total energy              =   -9900.88702377 Ry
     estimated scf accuracy    <       0.07611151 Ry

     total magnetization       =    63.97 Bohr mag/cell
     absolute magnetization    =    67.88 Bohr mag/cell

     iteration # 25     ecut=    54.00 Ry     beta= 0.70
     Davidson diagonalization with overlap
     ethr =  1.29E-05,  avg # of iterations =  2.1

     negative rho (up, down):  0.000E+00 3.644E-03

     total cpu time spent up to now is     2321.0 secs

     total energy              =   -9900.86311783 Ry
     estimated scf accuracy    <       0.68010184 Ry

     total magnetization       =    64.36 Bohr mag/cell
     absolute magnetization    =    68.24 Bohr mag/cell

     iteration # 26     ecut=    54.00 Ry     beta= 0.70

! Seems converged enough, not the answer we're looking for
