
     Program PWSCF v.7.1 starts on 25Nov2022 at 21:50:10 

     This program is part of the open-source Quantum ESPRESSO suite
     for quantum simulation of materials; please cite
         "P. Giannozzi et al., J. Phys.:Condens. Matter 21 395502 (2009);
         "P. Giannozzi et al., J. Phys.:Condens. Matter 29 465901 (2017);
         "P. Giannozzi et al., J. Chem. Phys. 152 154105 (2020);
          URL http://www.quantum-espresso.org", 
     in publications or presentations arising from this work. More details at
     http://www.quantum-espresso.org/quote

     Parallel version (MPI), running on     8 processors

     MPI processes distributed on     1 nodes
     13343 MiB available memory on the printing compute node when the environment starts

     Waiting for input...
     Reading input from standard input

     Current dimensions of program PWSCF are:
     Max number of different atomic species (ntypx) = 10
     Max number of k-points (npk) =  40000
     Max angular momentum in pseudopotentials (lmaxx) =  4
     file Fe.pbe-spn-kjpaw_psl.0.2.1.UPF: wavefunction(s)  3D renormalized

     IMPORTANT: XC functional enforced from input :
     Exchange-correlation= PBE
                           (   1   4   3   4   0   0   0)
     Any further DFT definition will be discarded
     Please, verify this is what you really want

     Found identity + ( -0.5000 -0.5000 -0.5000) symmetry
     This is a supercell, fractional translations are disabled
     Message from routine setup:
     using ibrav=0 with symmetry is DISCOURAGED, use correct ibrav instead

     R & G space division:  proc/nbgrp/npool/nimage =       8
     Subspace diagonalization in iterative solution of the eigenvalue problem:
     one sub-group per band group will be used
     custom distributed-memory algorithm (size of sub-group:  2*  2 procs)


     Parallelization info
     --------------------
     sticks:   dense  smooth     PW     G-vecs:    dense   smooth      PW
     Min         980     486    135                46225    16304    2350
     Max         981     487    136                46226    16307    2351
     Sum        7847    3895   1083               369801   130447   18805

     Using Slab Decomposition



     bravais-lattice index     =            0
     lattice parameter (alat)  =      10.6864  a.u.
     unit-cell volume          =    2440.7563 (a.u.)^3
     number of atoms/cell      =           32
     number of atomic types    =            2
     number of electrons       =       488.00
     number of Kohn-Sham states=          293
     kinetic-energy cutoff     =      54.0000  Ry
     charge density cutoff     =     432.0000  Ry
     scf convergence threshold =      1.0E-08
     mixing beta               =       0.7000
     number of iterations used =            8  plain     mixing
     energy convergence thresh.=      1.0E-04
     force convergence thresh. =      1.0E-03
     press convergence thresh. =      5.0E-01
     Exchange-correlation= PBE
                           (   1   4   3   4   0   0   0)
     nstep                     =           50


     celldm(1)=  10.686401  celldm(2)=   0.000000  celldm(3)=   0.000000
     celldm(4)=   0.000000  celldm(5)=   0.000000  celldm(6)=   0.000000

     crystal axes: (cart. coord. in units of alat)
               a(1) = (   2.000000   0.000000   0.000000 )  
               a(2) = (   0.000000   1.000000   0.000000 )  
               a(3) = (   0.000000   0.000000   1.000000 )  

     reciprocal axes: (cart. coord. in units 2 pi/alat)
               b(1) = (  0.500000  0.000000  0.000000 )  
               b(2) = (  0.000000  1.000000  0.000000 )  
               b(3) = (  0.000000  0.000000  1.000000 )  


     PseudoPot. # 1 for Si read from file:
     ./Si.pbe-n-rrkjus_psl.1.0.0.UPF
     MD5 check sum: 0b0bb1205258b0d07b9f9672cf965d36
     Pseudo is Ultrasoft + core correction, Zval =  4.0
     Generated using "atomic" code by A. Dal Corso  v.5.1
     Using radial grid of 1141 points,  6 beta functions with: 
                l(1) =   0
                l(2) =   0
                l(3) =   1
                l(4) =   1
                l(5) =   2
                l(6) =   2
     Q(r) pseudized with 0 coefficients 


     PseudoPot. # 2 for Fe read from file:
     ./Fe.pbe-spn-kjpaw_psl.0.2.1.UPF
     MD5 check sum: e86618425769142926afa95317d90200
     Pseudo is Projector augmented-wave + core cor, Zval = 16.0
     Generated using "atomic" code by A. Dal Corso  v.5.0.99 svn rev. 10869
     Shape of augmentation charge: PSQ
     Using radial grid of 1191 points,  6 beta functions with: 
                l(1) =   0
                l(2) =   0
                l(3) =   1
                l(4) =   1
                l(5) =   2
                l(6) =   2
     Q(r) pseudized with 0 coefficients 


     atomic species   valence    mass     pseudopotential
        Si             4.00    28.08500     Si( 1.00)
        Fe            16.00    55.84500     Fe( 1.00)

     Starting magnetic structure 
     atomic species   magnetization
        Si           1.000
        Fe           1.000

      8 Sym. Ops. (no inversion) found



   Cartesian axes

     site n.     atom                  positions (alat units)
         1           Fe  tau(   1) = (   0.5000000   0.5000000   0.5000000  )
         2           Fe  tau(   2) = (   0.5000000   1.0000000   1.0000000  )
         3           Fe  tau(   3) = (   1.0000000   0.5000000   1.0000000  )
         4           Fe  tau(   4) = (   1.0000000   1.0000000   0.5000000  )
         5           Fe  tau(   5) = (   0.2500000   0.2500000   0.2500000  )
         6           Fe  tau(   6) = (   0.2500000   0.7500000   0.7500000  )
         7           Fe  tau(   7) = (   0.7500000   0.2500000   0.7500000  )
         8           Fe  tau(   8) = (   0.7500000   0.7500000   0.2500000  )
         9           Fe  tau(   9) = (   0.7500000   0.7500000   0.7500000  )
        10           Fe  tau(  10) = (   0.7500000   0.2500000   0.2500000  )
        11           Fe  tau(  11) = (   0.2500000   0.7500000   0.2500000  )
        12           Fe  tau(  12) = (   0.2500000   0.2500000   0.7500000  )
        13           Fe  tau(  13) = (   0.0000000   0.0000000   0.0000000  )
        14           Fe  tau(  14) = (   0.0000000   0.5000000   0.5000000  )
        15           Si  tau(  15) = (   0.5000000   0.0000000   0.5000000  )
        16           Fe  tau(  16) = (   0.5000000   0.5000000   0.0000000  )
        17           Fe  tau(  17) = (   1.5000000   0.5000000   0.5000000  )
        18           Fe  tau(  18) = (   1.5000000   1.0000000   1.0000000  )
        19           Fe  tau(  19) = (   2.0000000   0.5000000   1.0000000  )
        20           Fe  tau(  20) = (   2.0000000   1.0000000   0.5000000  )
        21           Fe  tau(  21) = (   1.2500000   0.2500000   0.2500000  )
        22           Fe  tau(  22) = (   1.2500000   0.7500000   0.7500000  )
        23           Fe  tau(  23) = (   1.7500000   0.2500000   0.7500000  )
        24           Fe  tau(  24) = (   1.7500000   0.7500000   0.2500000  )
        25           Fe  tau(  25) = (   1.7500000   0.7500000   0.7500000  )
        26           Fe  tau(  26) = (   1.7500000   0.2500000   0.2500000  )
        27           Fe  tau(  27) = (   1.2500000   0.7500000   0.2500000  )
        28           Fe  tau(  28) = (   1.2500000   0.2500000   0.7500000  )
        29           Fe  tau(  29) = (   1.0000000   0.0000000   0.0000000  )
        30           Fe  tau(  30) = (   1.0000000   0.5000000   0.5000000  )
        31           Fe  tau(  31) = (   1.5000000   0.0000000   0.5000000  )
        32           Si  tau(  32) = (   1.5000000   0.5000000   0.0000000  )

     number of k points=    18  Marzari-Vanderbilt smearing, width (Ry)=  0.0050
                       cart. coord. in units 2pi/alat
        k(    1) = (   0.0000000   0.0000000   0.0000000), wk =   0.0080000
        k(    2) = (   0.0000000   0.0000000   0.2000000), wk =   0.0320000
        k(    3) = (   0.0000000   0.0000000   0.4000000), wk =   0.0320000
        k(    4) = (   0.0000000   0.2000000   0.2000000), wk =   0.0320000
        k(    5) = (   0.0000000   0.2000000   0.4000000), wk =   0.0640000
        k(    6) = (   0.0000000   0.4000000   0.4000000), wk =   0.0320000
        k(    7) = (   0.1000000   0.0000000   0.0000000), wk =   0.0160000
        k(    8) = (   0.1000000   0.0000000   0.2000000), wk =   0.0640000
        k(    9) = (   0.1000000   0.0000000   0.4000000), wk =   0.0640000
        k(   10) = (   0.1000000   0.2000000   0.2000000), wk =   0.0640000
        k(   11) = (   0.1000000   0.2000000   0.4000000), wk =   0.1280000
        k(   12) = (   0.1000000   0.4000000   0.4000000), wk =   0.0640000
        k(   13) = (   0.2000000   0.0000000   0.0000000), wk =   0.0160000
        k(   14) = (   0.2000000   0.0000000   0.2000000), wk =   0.0640000
        k(   15) = (   0.2000000   0.0000000   0.4000000), wk =   0.0640000
        k(   16) = (   0.2000000   0.2000000   0.2000000), wk =   0.0640000
        k(   17) = (   0.2000000   0.2000000   0.4000000), wk =   0.1280000
        k(   18) = (   0.2000000   0.4000000   0.4000000), wk =   0.0640000

     Dense  grid:   369801 G-vectors     FFT dimensions: ( 144,  72,  72)

     Smooth grid:   130447 G-vectors     FFT dimensions: ( 100,  50,  50)

     Estimated max dynamical RAM per process >     601.44 MB

     Estimated total dynamical RAM >       4.70 GB
