
     Program PWSCF v.6.8 starts on  4Dec2022 at  2:50: 6 

     This program is part of the open-source Quantum ESPRESSO suite
     for quantum simulation of materials; please cite
         "P. Giannozzi et al., J. Phys.:Condens. Matter 21 395502 (2009);
         "P. Giannozzi et al., J. Phys.:Condens. Matter 29 465901 (2017);
         "P. Giannozzi et al., J. Chem. Phys. 152 154105 (2020);
          URL http://www.quantum-espresso.org", 
     in publications or presentations arising from this work. More details at
     http://www.quantum-espresso.org/quote

     Parallel version (MPI & OpenMP), running on     100 processor cores
     Number of MPI processes:               100
     Threads/MPI process:                     1

     MPI processes distributed on     6 nodes
     R & G space division:  proc/nbgrp/npool/nimage =     100
     233757 MiB available memory on the printing compute node when the environment starts

     Reading input from fractal.in

     Current dimensions of program PWSCF are:
     Max number of different atomic species (ntypx) = 10
     Max number of k-points (npk) =  40000
     Max angular momentum in pseudopotentials (lmaxx) =  4
     file Fe.pbe-spn-kjpaw_psl.0.2.1.UPF: wavefunction(s)  3D renormalized

     IMPORTANT: XC functional enforced from input :
     Exchange-correlation= PBE
                           (   1   4   3   4   0   0   0)
     Any further DFT definition will be discarded
     Please, verify this is what you really want

     Found symmetry operation: I + ( -0.5000 -0.5000  0.0000)
     This is a supercell, fractional translations are disabled
     Message from routine setup:
     using ibrav=0 with symmetry is DISCOURAGED, use correct ibrav instead

     Subspace diagonalization in iterative solution of the eigenvalue problem:
     one sub-group per band group will be used
     scalapack distributed-memory algorithm (size of sub-group: 10* 10 procs)


     Parallelization info
     --------------------
     sticks:   dense  smooth     PW     G-vecs:    dense   smooth      PW
     Min         156      78     20                14798     5230     718
     Max         157      79     21                14807     5237     727
     Sum       15685    7825   2093              1480425   523155   72455

     Using Slab Decomposition



     bravais-lattice index     =            0
     lattice parameter (alat)  =      21.3728  a.u.
     unit-cell volume          =    9763.0253 (a.u.)^3
     number of atoms/cell      =          128
     number of atomic types    =            2
     number of electrons       =      1856.00
     number of Kohn-Sham states=         1114
     kinetic-energy cutoff     =      54.0000  Ry
     charge density cutoff     =     432.0000  Ry
     scf convergence threshold =      1.0E-08
     mixing beta               =       0.7000
     number of iterations used =            8  plain     mixing
     Exchange-correlation= PBE
                           (   1   4   3   4   0   0   0)

     celldm(1)=  21.372802  celldm(2)=   0.000000  celldm(3)=   0.000000
     celldm(4)=   0.000000  celldm(5)=   0.000000  celldm(6)=   0.000000

     crystal axes: (cart. coord. in units of alat)
               a(1) = (   1.000000   0.000000   0.000000 )  
               a(2) = (   0.000000   1.000000   0.000000 )  
               a(3) = (   0.000000   0.000000   1.000000 )  

     reciprocal axes: (cart. coord. in units 2 pi/alat)
               b(1) = (  1.000000  0.000000  0.000000 )  
               b(2) = (  0.000000  1.000000  0.000000 )  
               b(3) = (  0.000000  0.000000  1.000000 )  


     PseudoPot. # 1 for Si read from file:
     ./Si.pbe-n-rrkjus_psl.1.0.0.UPF
     MD5 check sum: 0b0bb1205258b0d07b9f9672cf965d36
     Pseudo is Ultrasoft + core correction, Zval =  4.0
     Generated using "atomic" code by A. Dal Corso  v.5.1
     Using radial grid of 1141 points,  6 beta functions with: 
                l(1) =   0
                l(2) =   0
                l(3) =   1
                l(4) =   1
                l(5) =   2
                l(6) =   2
     Q(r) pseudized with 0 coefficients 


     PseudoPot. # 2 for Fe read from file:
     ./Fe.pbe-spn-kjpaw_psl.0.2.1.UPF
     MD5 check sum: e86618425769142926afa95317d90200
     Pseudo is Projector augmented-wave + core cor, Zval = 16.0
     Generated using "atomic" code by A. Dal Corso  v.5.0.99 svn rev. 10869
     Shape of augmentation charge: PSQ
     Using radial grid of 1191 points,  6 beta functions with: 
                l(1) =   0
                l(2) =   0
                l(3) =   1
                l(4) =   1
                l(5) =   2
                l(6) =   2
     Q(r) pseudized with 0 coefficients 


     atomic species   valence    mass     pseudopotential
        Si             4.00    28.08500     Si( 1.00)
        Fe            16.00    55.84500     Fe( 1.00)

     Starting magnetic structure 
     atomic species   magnetization
        Si           1.000
        Fe           1.000

     24 Sym. Ops. (no inversion) found



   Cartesian axes

     site n.     atom                  positions (alat units)
         1           Fe  tau(   1) = (   0.1250000   0.1250000   0.1250000  )
         2           Fe  tau(   2) = (   0.6250000   0.6250000   0.6250000  )
         3           Fe  tau(   3) = (   0.6250000   0.6250000   0.1250000  )
         4           Fe  tau(   4) = (   0.1250000   0.1250000   0.6250000  )
         5           Fe  tau(   5) = (   0.6250000   0.1250000   0.6250000  )
         6           Fe  tau(   6) = (   0.1250000   0.6250000   0.1250000  )
         7           Fe  tau(   7) = (   0.1250000   0.6250000   0.6250000  )
         8           Fe  tau(   8) = (   0.6250000   0.1250000   0.1250000  )
         9           Fe  tau(   9) = (   0.1250000   0.3750000   0.3750000  )
        10           Fe  tau(  10) = (   0.6250000   0.8750000   0.8750000  )
        11           Fe  tau(  11) = (   0.6250000   0.8750000   0.3750000  )
        12           Fe  tau(  12) = (   0.1250000   0.3750000   0.8750000  )
        13           Fe  tau(  13) = (   0.6250000   0.3750000   0.8750000  )
        14           Fe  tau(  14) = (   0.1250000   0.8750000   0.3750000  )
        15           Fe  tau(  15) = (   0.1250000   0.8750000   0.8750000  )
        16           Fe  tau(  16) = (   0.6250000   0.3750000   0.3750000  )
        17           Fe  tau(  17) = (   0.3750000   0.1250000   0.3750000  )
        18           Fe  tau(  18) = (   0.8750000   0.6250000   0.8750000  )
        19           Fe  tau(  19) = (   0.8750000   0.6250000   0.3750000  )
        20           Fe  tau(  20) = (   0.3750000   0.1250000   0.8750000  )
        21           Fe  tau(  21) = (   0.8750000   0.1250000   0.8750000  )
        22           Fe  tau(  22) = (   0.3750000   0.6250000   0.3750000  )
        23           Fe  tau(  23) = (   0.3750000   0.6250000   0.8750000  )
        24           Fe  tau(  24) = (   0.8750000   0.1250000   0.3750000  )
        25           Fe  tau(  25) = (   0.3750000   0.3750000   0.1250000  )
        26           Fe  tau(  26) = (   0.8750000   0.8750000   0.6250000  )
        27           Fe  tau(  27) = (   0.8750000   0.8750000   0.1250000  )
        28           Fe  tau(  28) = (   0.3750000   0.3750000   0.6250000  )
        29           Fe  tau(  29) = (   0.8750000   0.3750000   0.6250000  )
        30           Fe  tau(  30) = (   0.3750000   0.8750000   0.1250000  )
        31           Fe  tau(  31) = (   0.3750000   0.8750000   0.6250000  )
        32           Fe  tau(  32) = (   0.8750000   0.3750000   0.1250000  )
        33           Fe  tau(  33) = (   0.0000000   0.0000000   0.0000000  )
        34           Fe  tau(  34) = (   0.7500000   0.7500000   0.7500000  )
        35           Fe  tau(  35) = (   0.7500000   0.7500000   0.0000000  )
        36           Fe  tau(  36) = (   0.0000000   0.0000000   0.7500000  )
        37           Fe  tau(  37) = (   0.7500000   0.0000000   0.7500000  )
        38           Fe  tau(  38) = (   0.0000000   0.7500000   0.0000000  )
        39           Fe  tau(  39) = (   0.0000000   0.7500000   0.7500000  )
        40           Fe  tau(  40) = (   0.7500000   0.0000000   0.0000000  )
        41           Fe  tau(  41) = (   0.0000000   0.2500000   0.2500000  )
        42           Fe  tau(  42) = (   0.7500000   0.0000000   0.2500000  )
        43           Fe  tau(  43) = (   0.0000000   0.2500000   0.0000000  )
        44           Fe  tau(  44) = (   0.7500000   0.2500000   0.0000000  )
        45           Fe  tau(  45) = (   0.0000000   0.0000000   0.2500000  )
        46           Fe  tau(  46) = (   0.7500000   0.2500000   0.2500000  )
        47           Fe  tau(  47) = (   0.2500000   0.0000000   0.2500000  )
        48           Fe  tau(  48) = (   0.0000000   0.7500000   0.2500000  )
        49           Fe  tau(  49) = (   0.2500000   0.0000000   0.0000000  )
        50           Fe  tau(  50) = (   0.2500000   0.7500000   0.2500000  )
        51           Fe  tau(  51) = (   0.2500000   0.7500000   0.0000000  )
        52           Fe  tau(  52) = (   0.2500000   0.2500000   0.0000000  )
        53           Fe  tau(  53) = (   0.2500000   0.2500000   0.7500000  )
        54           Fe  tau(  54) = (   0.0000000   0.2500000   0.7500000  )
        55           Fe  tau(  55) = (   0.2500000   0.0000000   0.7500000  )
        56           Fe  tau(  56) = (   0.0000000   0.0000000   0.5000000  )
        57           Fe  tau(  57) = (   0.7500000   0.7500000   0.2500000  )
        58           Fe  tau(  58) = (   0.7500000   0.7500000   0.5000000  )
        59           Fe  tau(  59) = (   0.0000000   0.7500000   0.5000000  )
        60           Fe  tau(  60) = (   0.7500000   0.0000000   0.5000000  )
        61           Fe  tau(  61) = (   0.5000000   0.0000000   0.0000000  )
        62           Fe  tau(  62) = (   0.2500000   0.7500000   0.7500000  )
        63           Fe  tau(  63) = (   0.5000000   0.7500000   0.7500000  )
        64           Fe  tau(  64) = (   0.5000000   0.0000000   0.7500000  )
        65           Fe  tau(  65) = (   0.5000000   0.7500000   0.0000000  )
        66           Fe  tau(  66) = (   0.0000000   0.5000000   0.0000000  )
        67           Fe  tau(  67) = (   0.7500000   0.2500000   0.7500000  )
        68           Fe  tau(  68) = (   0.7500000   0.5000000   0.7500000  )
        69           Fe  tau(  69) = (   0.7500000   0.5000000   0.0000000  )
        70           Fe  tau(  70) = (   0.0000000   0.5000000   0.7500000  )
        71           Fe  tau(  71) = (   0.0000000   0.2500000   0.5000000  )
        72           Fe  tau(  72) = (   0.7500000   0.2500000   0.5000000  )
        73           Fe  tau(  73) = (   0.5000000   0.2500000   0.2500000  )
        74           Fe  tau(  74) = (   0.2500000   0.2500000   0.2500000  )
        75           Fe  tau(  75) = (   0.5000000   0.2500000   0.0000000  )
        76           Fe  tau(  76) = (   0.5000000   0.0000000   0.2500000  )
        77           Fe  tau(  77) = (   0.0000000   0.5000000   0.2500000  )
        78           Fe  tau(  78) = (   0.7500000   0.5000000   0.2500000  )
        79           Fe  tau(  79) = (   0.2500000   0.0000000   0.5000000  )
        80           Fe  tau(  80) = (   0.2500000   0.7500000   0.5000000  )
        81           Fe  tau(  81) = (   0.5000000   0.7500000   0.2500000  )
        82           Fe  tau(  82) = (   0.2500000   0.5000000   0.2500000  )
        83           Fe  tau(  83) = (   0.2500000   0.5000000   0.0000000  )
        84           Fe  tau(  84) = (   0.2500000   0.2500000   0.5000000  )
        85           Fe  tau(  85) = (   0.5000000   0.2500000   0.7500000  )
        86           Fe  tau(  86) = (   0.2500000   0.5000000   0.7500000  )
        87           Fe  tau(  87) = (   0.0000000   0.5000000   0.5000000  )
        88           Fe  tau(  88) = (   0.7500000   0.5000000   0.5000000  )
        89           Fe  tau(  89) = (   0.5000000   0.0000000   0.5000000  )
        90           Fe  tau(  90) = (   0.5000000   0.7500000   0.5000000  )
        91           Fe  tau(  91) = (   0.5000000   0.5000000   0.0000000  )
        92           Fe  tau(  92) = (   0.5000000   0.5000000   0.7500000  )
        93           Fe  tau(  93) = (   0.5000000   0.2500000   0.5000000  )
        94           Fe  tau(  94) = (   0.5000000   0.5000000   0.2500000  )
        95           Fe  tau(  95) = (   0.2500000   0.5000000   0.5000000  )
        96           Fe  tau(  96) = (   0.5000000   0.5000000   0.5000000  )
        97           Fe  tau(  97) = (   0.3750000   0.3750000   0.3750000  )
        98           Fe  tau(  98) = (   0.3750000   0.6250000   0.6250000  )
        99           Fe  tau(  99) = (   0.6250000   0.3750000   0.6250000  )
       100           Fe  tau( 100) = (   0.6250000   0.6250000   0.3750000  )
       101           Fe  tau( 101) = (   0.3750000   0.8750000   0.8750000  )
       102           Fe  tau( 102) = (   0.8750000   0.3750000   0.8750000  )
       103           Fe  tau( 103) = (   0.8750000   0.8750000   0.3750000  )
       104           Fe  tau( 104) = (   0.3750000   0.1250000   0.1250000  )
       105           Fe  tau( 105) = (   0.8750000   0.6250000   0.1250000  )
       106           Fe  tau( 106) = (   0.8750000   0.1250000   0.6250000  )
       107           Fe  tau( 107) = (   0.6250000   0.8750000   0.1250000  )
       108           Fe  tau( 108) = (   0.1250000   0.3750000   0.1250000  )
       109           Fe  tau( 109) = (   0.1250000   0.8750000   0.6250000  )
       110           Fe  tau( 110) = (   0.6250000   0.1250000   0.8750000  )
       111           Fe  tau( 111) = (   0.1250000   0.6250000   0.8750000  )
       112           Fe  tau( 112) = (   0.1250000   0.1250000   0.3750000  )
       113           Si  tau( 113) = (   0.3750000   0.3750000   0.8750000  )
       114           Si  tau( 114) = (   0.8750000   0.3750000   0.3750000  )
       115           Si  tau( 115) = (   0.3750000   0.8750000   0.3750000  )
       116           Si  tau( 116) = (   0.3750000   0.6250000   0.1250000  )
       117           Si  tau( 117) = (   0.8750000   0.6250000   0.6250000  )
       118           Si  tau( 118) = (   0.3750000   0.1250000   0.6250000  )
       119           Si  tau( 119) = (   0.6250000   0.3750000   0.1250000  )
       120           Si  tau( 120) = (   0.1250000   0.3750000   0.6250000  )
       121           Si  tau( 121) = (   0.6250000   0.8750000   0.6250000  )
       122           Si  tau( 122) = (   0.6250000   0.6250000   0.8750000  )
       123           Si  tau( 123) = (   0.1250000   0.6250000   0.3750000  )
       124           Si  tau( 124) = (   0.6250000   0.1250000   0.3750000  )
       125           Si  tau( 125) = (   0.8750000   0.8750000   0.8750000  )
       126           Si  tau( 126) = (   0.8750000   0.1250000   0.1250000  )
       127           Si  tau( 127) = (   0.1250000   0.8750000   0.1250000  )
       128           Si  tau( 128) = (   0.1250000   0.1250000   0.8750000  )

     number of k points=     4  Marzari-Vanderbilt smearing, width (Ry)=  0.0050
                       cart. coord. in units 2pi/alat
        k(    1) = (   0.0000000   0.0000000   0.0000000), wk =   0.1250000
        k(    2) = (   0.0000000   0.0000000  -0.5000000), wk =   0.3750000
        k(    3) = (   0.0000000  -0.5000000  -0.5000000), wk =   0.3750000
        k(    4) = (  -0.5000000  -0.5000000  -0.5000000), wk =   0.1250000

     Dense  grid:  1480425 G-vectors     FFT dimensions: ( 144, 144, 144)

     Smooth grid:   523155 G-vectors     FFT dimensions: ( 100, 100, 100)

     Estimated max dynamical RAM per process >     260.45 MB

     Estimated total dynamical RAM >      25.43 GB

     Check: negative core charge=   -0.000071
     Generating pointlists ...
     new r_m :   0.0893 (alat units)  1.9088 (a.u.) for type    1
     new r_m :   0.0893 (alat units)  1.9088 (a.u.) for type    2

     Initial potential from superposition of free atoms

     starting charge 1855.94196, renormalised to 1856.00000
     Starting wfcs are 1520 randomized atomic wfcs
     Checking if some PAW data can be deallocated... 

     total cpu time spent up to now is      275.5 secs

     Self-consistent Calculation

     iteration #  1     ecut=    54.00 Ry     beta= 0.70
     Davidson diagonalization with overlap
     ethr =  1.00E-02,  avg # of iterations =  2.6

     negative rho (up, down):  0.000E+00 2.511E-02

     total cpu time spent up to now is      565.3 secs

     total energy              =  -36986.72012552 Ry
     estimated scf accuracy    <     470.88886438 Ry

     total magnetization       =   372.00 Bohr mag/cell
     absolute magnetization    =   486.98 Bohr mag/cell

     iteration #  2     ecut=    54.00 Ry     beta= 0.70
     Davidson diagonalization with overlap
     ethr =  1.00E-02,  avg # of iterations =  3.6

     negative rho (up, down):  0.000E+00 1.788E-02

     total cpu time spent up to now is      890.9 secs

     total energy              =  -36991.62915747 Ry
     estimated scf accuracy    <     169.36334018 Ry

     total magnetization       =   318.22 Bohr mag/cell
     absolute magnetization    =   356.32 Bohr mag/cell

     iteration #  3     ecut=    54.00 Ry     beta= 0.70
     Davidson diagonalization with overlap
     ethr =  9.13E-03,  avg # of iterations =  5.0

     negative rho (up, down):  0.000E+00 1.606E-02

     total cpu time spent up to now is     1275.9 secs

     total energy              =  -36842.07539330 Ry
     estimated scf accuracy    <    1879.18253400 Ry

     total magnetization       =   176.81 Bohr mag/cell
     absolute magnetization    =   188.34 Bohr mag/cell

     iteration #  4     ecut=    54.00 Ry     beta= 0.70
     Davidson diagonalization with overlap
     ethr =  9.13E-03,  avg # of iterations =  4.9

     negative rho (up, down):  0.000E+00 1.290E-02

     total cpu time spent up to now is     1656.1 secs

     total energy              =  -36999.00144847 Ry
     estimated scf accuracy    <    1016.75659724 Ry

     total magnetization       =   143.54 Bohr mag/cell
     absolute magnetization    =   161.36 Bohr mag/cell

     iteration #  5     ecut=    54.00 Ry     beta= 0.70
     Davidson diagonalization with overlap
     ethr =  9.13E-03,  avg # of iterations =  3.0

     negative rho (up, down):  0.000E+00 1.282E-02

     total cpu time spent up to now is     1948.2 secs

     total energy              =  -37004.84217409 Ry
     estimated scf accuracy    <    3017.59673298 Ry

     total magnetization       =    65.48 Bohr mag/cell
     absolute magnetization    =    86.94 Bohr mag/cell

     iteration #  6     ecut=    54.00 Ry     beta= 0.70
     Davidson diagonalization with overlap
     ethr =  9.13E-03,  avg # of iterations =  2.6

     negative rho (up, down):  0.000E+00 1.134E-02

     total cpu time spent up to now is     2180.0 secs

     total energy              =  -37045.96974468 Ry
     estimated scf accuracy    <     213.09725614 Ry

     total magnetization       =   162.73 Bohr mag/cell
     absolute magnetization    =   182.81 Bohr mag/cell

     iteration #  7     ecut=    54.00 Ry     beta= 0.70
     Davidson diagonalization with overlap
     ethr =  9.13E-03,  avg # of iterations =  1.8

     negative rho (up, down):  0.000E+00 9.649E-03

     total cpu time spent up to now is     2394.5 secs

     total energy              =  -37055.32056277 Ry
     estimated scf accuracy    <     178.68560004 Ry

     total magnetization       =   157.33 Bohr mag/cell
     absolute magnetization    =   174.89 Bohr mag/cell

     iteration #  8     ecut=    54.00 Ry     beta= 0.70
     Davidson diagonalization with overlap
     ethr =  9.13E-03,  avg # of iterations =  1.0

     negative rho (up, down):  0.000E+00 9.130E-03

     total cpu time spent up to now is     2579.6 secs

     total energy              =  -37057.09313539 Ry
     estimated scf accuracy    <     192.46714500 Ry

     total magnetization       =   160.66 Bohr mag/cell
     absolute magnetization    =   176.27 Bohr mag/cell

     iteration #  9     ecut=    54.00 Ry     beta= 0.70
     Davidson diagonalization with overlap
     ethr =  9.13E-03,  avg # of iterations =  1.0

     negative rho (up, down):  0.000E+00 8.836E-03

     total cpu time spent up to now is     2764.8 secs

     total energy              =  -37059.29240370 Ry
     estimated scf accuracy    <      48.23229141 Ry

     total magnetization       =   188.28 Bohr mag/cell
     absolute magnetization    =   202.12 Bohr mag/cell

     iteration # 10     ecut=    54.00 Ry     beta= 0.70
     Davidson diagonalization with overlap
     ethr =  2.60E-03,  avg # of iterations =  1.0

     negative rho (up, down):  0.000E+00 8.359E-03

     total cpu time spent up to now is     2955.7 secs

     total energy              =  -37059.19261887 Ry
     estimated scf accuracy    <      23.73033450 Ry

     total magnetization       =   199.52 Bohr mag/cell
     absolute magnetization    =   212.09 Bohr mag/cell

     iteration # 11     ecut=    54.00 Ry     beta= 0.70
     Davidson diagonalization with overlap
     ethr =  1.28E-03,  avg # of iterations =  3.5

     negative rho (up, down):  0.000E+00 8.187E-03

     total cpu time spent up to now is     3189.9 secs

     total energy              =  -37055.43282789 Ry
     estimated scf accuracy    <     189.77028945 Ry

     total magnetization       =   186.73 Bohr mag/cell
     absolute magnetization    =   201.34 Bohr mag/cell

     iteration # 12     ecut=    54.00 Ry     beta= 0.70
     Davidson diagonalization with overlap
     ethr =  1.28E-03,  avg # of iterations =  2.4

     negative rho (up, down):  0.000E+00 7.546E-03

     total cpu time spent up to now is     3418.8 secs

     total energy              =  -37059.68124408 Ry
     estimated scf accuracy    <      18.12305953 Ry

     total magnetization       =   204.15 Bohr mag/cell
     absolute magnetization    =   217.41 Bohr mag/cell

     iteration # 13     ecut=    54.00 Ry     beta= 0.70
     Davidson diagonalization with overlap
     ethr =  9.76E-04,  avg # of iterations =  3.9

     negative rho (up, down):  0.000E+00 7.756E-03

     total cpu time spent up to now is     3666.7 secs

     total energy              =  -37057.85687331 Ry
     estimated scf accuracy    <      84.22144532 Ry

     total magnetization       =   185.87 Bohr mag/cell
     absolute magnetization    =   198.80 Bohr mag/cell

     iteration # 14     ecut=    54.00 Ry     beta= 0.70
     Davidson diagonalization with overlap
     ethr =  9.76E-04,  avg # of iterations =  2.0

     negative rho (up, down):  0.000E+00 8.256E-03

     total cpu time spent up to now is     3890.8 secs

     total energy              =  -37060.36221731 Ry
     estimated scf accuracy    <      11.65727545 Ry

     total magnetization       =   214.14 Bohr mag/cell
     absolute magnetization    =   225.85 Bohr mag/cell

     iteration # 15     ecut=    54.00 Ry     beta= 0.70
     Davidson diagonalization with overlap
     ethr =  6.28E-04,  avg # of iterations =  2.0

     negative rho (up, down):  0.000E+00 8.198E-03

     total cpu time spent up to now is     4116.0 secs

     total energy              =  -37057.72309850 Ry
     estimated scf accuracy    <     169.32875400 Ry

     total magnetization       =   198.26 Bohr mag/cell
     absolute magnetization    =   210.54 Bohr mag/cell

     iteration # 16     ecut=    54.00 Ry     beta= 0.70
     Davidson diagonalization with overlap
     ethr =  6.28E-04,  avg # of iterations =  1.9

     negative rho (up, down):  0.000E+00 8.167E-03

     total cpu time spent up to now is     4335.7 secs

     total energy              =  -37060.50535416 Ry
     estimated scf accuracy    <      34.84501321 Ry

     total magnetization       =   213.97 Bohr mag/cell
     absolute magnetization    =   226.17 Bohr mag/cell

     iteration # 17     ecut=    54.00 Ry     beta= 0.70
     Davidson diagonalization with overlap
     ethr =  6.28E-04,  avg # of iterations =  1.9

     negative rho (up, down):  0.000E+00 8.283E-03

     total cpu time spent up to now is     4555.5 secs

     total energy              =  -37060.76546404 Ry
     estimated scf accuracy    <      15.80525135 Ry

     total magnetization       =   216.37 Bohr mag/cell
     absolute magnetization    =   228.57 Bohr mag/cell

     iteration # 18     ecut=    54.00 Ry     beta= 0.70
     Davidson diagonalization with overlap
     ethr =  6.28E-04,  avg # of iterations =  1.0

     negative rho (up, down):  0.000E+00 8.558E-03

     total cpu time spent up to now is     4739.5 secs

     total energy              =  -37060.44126815 Ry
     estimated scf accuracy    <      21.47286785 Ry

     total magnetization       =   215.51 Bohr mag/cell
     absolute magnetization    =   227.97 Bohr mag/cell

     iteration # 19     ecut=    54.00 Ry     beta= 0.70
     Davidson diagonalization with overlap
     ethr =  6.28E-04,  avg # of iterations =  2.0

     negative rho (up, down):  0.000E+00 8.693E-03

     total cpu time spent up to now is     4966.7 secs

     total energy              =  -37057.14078750 Ry
     estimated scf accuracy    <     132.89349391 Ry

     total magnetization       =   196.42 Bohr mag/cell
     absolute magnetization    =   210.10 Bohr mag/cell

     iteration # 20     ecut=    54.00 Ry     beta= 0.70
     Davidson diagonalization with overlap
     ethr =  6.28E-04,  avg # of iterations =  2.0

     negative rho (up, down):  0.000E+00 8.881E-03

     total cpu time spent up to now is     5198.0 secs

     total energy              =  -37060.38265712 Ry
     estimated scf accuracy    <      17.27525650 Ry

     total magnetization       =   217.95 Bohr mag/cell
     absolute magnetization    =   230.59 Bohr mag/cell

     iteration # 21     ecut=    54.00 Ry     beta= 0.70
     Davidson diagonalization with overlap
     ethr =  6.28E-04,  avg # of iterations =  2.1

     negative rho (up, down):  0.000E+00 9.099E-03

     total cpu time spent up to now is     5427.7 secs

     total energy              =  -37057.10077195 Ry
     estimated scf accuracy    <     128.74008830 Ry

     total magnetization       =   201.44 Bohr mag/cell
     absolute magnetization    =   215.70 Bohr mag/cell

     iteration # 22     ecut=    54.00 Ry     beta= 0.70
     Davidson diagonalization with overlap
     ethr =  6.28E-04,  avg # of iterations =  3.5

     negative rho (up, down):  0.000E+00 9.127E-03

     total cpu time spent up to now is     5738.7 secs

     total energy              =  -37055.93912887 Ry
     estimated scf accuracy    <     179.22459796 Ry

     total magnetization       =   193.77 Bohr mag/cell
     absolute magnetization    =   207.74 Bohr mag/cell

     iteration # 23     ecut=    54.00 Ry     beta= 0.70
     Davidson diagonalization with overlap
     ethr =  6.28E-04,  avg # of iterations =  3.4

     negative rho (up, down):  0.000E+00 9.035E-03

     total cpu time spent up to now is     5994.1 secs

     total energy              =  -37058.85573400 Ry
     estimated scf accuracy    <      61.13140777 Ry

     total magnetization       =   196.14 Bohr mag/cell
     absolute magnetization    =   210.32 Bohr mag/cell

     iteration # 24     ecut=    54.00 Ry     beta= 0.70
     Davidson diagonalization with overlap
     ethr =  6.28E-04,  avg # of iterations =  2.2

     negative rho (up, down):  0.000E+00 9.116E-03

     total cpu time spent up to now is     6319.1 secs

     total energy              =  -37055.74513869 Ry
     estimated scf accuracy    <     131.31549220 Ry

     total magnetization       =   197.17 Bohr mag/cell
     absolute magnetization    =   209.72 Bohr mag/cell

     iteration # 25     ecut=    54.00 Ry     beta= 0.70
     Davidson diagonalization with overlap
     ethr =  6.28E-04,  avg # of iterations =  7.4

     negative rho (up, down):  0.000E+00 9.155E-03

     total cpu time spent up to now is     6657.6 secs

     total energy              =  -37037.76064819 Ry
     estimated scf accuracy    <    1436.11790247 Ry

     total magnetization       =   122.79 Bohr mag/cell
     absolute magnetization    =   137.36 Bohr mag/cell

     iteration # 26     ecut=    54.00 Ry     beta= 0.70
     Davidson diagonalization with overlap
     ethr =  6.28E-04,  avg # of iterations =  6.9

     negative rho (up, down):  0.000E+00 8.704E-03

     total cpu time spent up to now is     6998.4 secs

     total energy              =  -37055.98141018 Ry
     estimated scf accuracy    <     205.70870025 Ry

     total magnetization       =   201.82 Bohr mag/cell
     absolute magnetization    =   213.74 Bohr mag/cell

     iteration # 27     ecut=    54.00 Ry     beta= 0.70
     Davidson diagonalization with overlap
     ethr =  6.28E-04,  avg # of iterations =  4.0

     negative rho (up, down):  0.000E+00 8.686E-03

     total cpu time spent up to now is     7318.1 secs

     total energy              =  -37055.13223652 Ry
     estimated scf accuracy    <     118.01912751 Ry

     total magnetization       =   203.02 Bohr mag/cell
     absolute magnetization    =   214.64 Bohr mag/cell

     iteration # 28     ecut=    54.00 Ry     beta= 0.70
     Davidson diagonalization with overlap
     ethr =  6.28E-04,  avg # of iterations =  5.2

     negative rho (up, down):  0.000E+00 8.323E-03

     total cpu time spent up to now is     7698.2 secs

     total energy              =  -37041.14189618 Ry
     estimated scf accuracy    <     642.24725440 Ry

     total magnetization       =   125.77 Bohr mag/cell
     absolute magnetization    =   138.53 Bohr mag/cell

     iteration # 29     ecut=    54.00 Ry     beta= 0.70
     Davidson diagonalization with overlap
     ethr =  6.28E-04,  avg # of iterations =  7.2

     negative rho (up, down):  0.000E+00 7.439E-03

     total cpu time spent up to now is     8118.0 secs

     total energy              =  -37048.80857922 Ry
     estimated scf accuracy    <     290.31854479 Ry

     total magnetization       =   171.12 Bohr mag/cell
     absolute magnetization    =   185.30 Bohr mag/cell

     iteration # 30     ecut=    54.00 Ry     beta= 0.70
     Davidson diagonalization with overlap
     ethr =  6.28E-04,  avg # of iterations =  6.4

     negative rho (up, down):  0.000E+00 7.026E-03

     total cpu time spent up to now is     8535.7 secs

     total energy              =  -37033.06219184 Ry
     estimated scf accuracy    <     705.14601221 Ry

     total magnetization       =   102.19 Bohr mag/cell
     absolute magnetization    =   114.65 Bohr mag/cell

     iteration # 31     ecut=    54.00 Ry     beta= 0.70
     Davidson diagonalization with overlap
     ethr =  6.28E-04,  avg # of iterations =  9.9

     negative rho (up, down):  0.000E+00 6.385E-03

     total cpu time spent up to now is     8957.5 secs

     total energy              =  -37042.24977024 Ry
     estimated scf accuracy    <     613.64410296 Ry

     total magnetization       =   132.44 Bohr mag/cell
     absolute magnetization    =   146.88 Bohr mag/cell

     iteration # 32     ecut=    54.00 Ry     beta= 0.70
     Davidson diagonalization with overlap
     ethr =  6.28E-04,  avg # of iterations =  6.1

     negative rho (up, down):  0.000E+00 5.566E-03

     total cpu time spent up to now is     9352.3 secs

     total energy              =  -37048.56583177 Ry
     estimated scf accuracy    <     271.83231274 Ry

     total magnetization       =   178.41 Bohr mag/cell
     absolute magnetization    =   190.67 Bohr mag/cell

     iteration # 33     ecut=    54.00 Ry     beta= 0.70
     Davidson diagonalization with overlap
     ethr =  6.28E-04,  avg # of iterations =  7.9

     negative rho (up, down):  0.000E+00 5.149E-03

     total cpu time spent up to now is     9797.4 secs

     total energy              =  -37029.89116747 Ry
     estimated scf accuracy    <     795.45423878 Ry

     total magnetization       =   116.87 Bohr mag/cell
     absolute magnetization    =   127.57 Bohr mag/cell

     iteration # 34     ecut=    54.00 Ry     beta= 0.70
     Davidson diagonalization with overlap
     ethr =  6.28E-04,  avg # of iterations =  6.4

     negative rho (up, down):  0.000E+00 4.615E-03

     total cpu time spent up to now is    10287.7 secs

     total energy              =  -37041.99484990 Ry
     estimated scf accuracy    <     546.95499781 Ry

     total magnetization       =   126.70 Bohr mag/cell
     absolute magnetization    =   140.27 Bohr mag/cell

     iteration # 35     ecut=    54.00 Ry     beta= 0.70
     Davidson diagonalization with overlap
