
     Program PWSCF v.7.1 starts on 26Nov2022 at  6:18:26 

     This program is part of the open-source Quantum ESPRESSO suite
     for quantum simulation of materials; please cite
         "P. Giannozzi et al., J. Phys.:Condens. Matter 21 395502 (2009);
         "P. Giannozzi et al., J. Phys.:Condens. Matter 29 465901 (2017);
         "P. Giannozzi et al., J. Chem. Phys. 152 154105 (2020);
          URL http://www.quantum-espresso.org", 
     in publications or presentations arising from this work. More details at
     http://www.quantum-espresso.org/quote

     Parallel version (MPI), running on     8 processors

     MPI processes distributed on     1 nodes
     14295 MiB available memory on the printing compute node when the environment starts

     Waiting for input...
     Reading input from standard input

     Current dimensions of program PWSCF are:
     Max number of different atomic species (ntypx) = 10
     Max number of k-points (npk) =  40000
     Max angular momentum in pseudopotentials (lmaxx) =  4
     file Fe.pbe-spn-kjpaw_psl.0.2.1.UPF: wavefunction(s)  3D renormalized

     IMPORTANT: XC functional enforced from input :
     Exchange-correlation= PBE
                           (   1   4   3   4   0   0   0)
     Any further DFT definition will be discarded
     Please, verify this is what you really want

     Found identity + (  0.5000  0.5000  0.5000) symmetry
     This is a supercell, fractional translations are disabled
     Message from routine setup:
     using ibrav=0 with symmetry is DISCOURAGED, use correct ibrav instead

     R & G space division:  proc/nbgrp/npool/nimage =       8
     Subspace diagonalization in iterative solution of the eigenvalue problem:
     a serial algorithm will be used


     Parallelization info
     --------------------
     sticks:   dense  smooth     PW     G-vecs:    dense   smooth      PW
     Min         489     242     69                23091     8136    1221
     Max         491     243     70                23093     8141    1224
     Sum        3917    1941    553               184739    65117    9771

     Using Slab Decomposition



     bravais-lattice index     =            0
     lattice parameter (alat)  =      10.6864  a.u.
     unit-cell volume          =    1220.3782 (a.u.)^3
     number of atoms/cell      =           16
     number of atomic types    =            2
     number of electrons       =       232.00
     number of Kohn-Sham states=          139
     kinetic-energy cutoff     =      54.0000  Ry
     charge density cutoff     =     432.0000  Ry
     scf convergence threshold =      1.0E-08
     mixing beta               =       0.7000
     number of iterations used =            8  plain     mixing
     energy convergence thresh.=      1.0E-04
     force convergence thresh. =      1.0E-03
     press convergence thresh. =      5.0E-01
     Exchange-correlation= PBE
                           (   1   4   3   4   0   0   0)
     nstep                     =           50


     celldm(1)=  10.686401  celldm(2)=   0.000000  celldm(3)=   0.000000
     celldm(4)=   0.000000  celldm(5)=   0.000000  celldm(6)=   0.000000

     crystal axes: (cart. coord. in units of alat)
               a(1) = (   1.000000   0.000000   0.000000 )  
               a(2) = (   0.000000   1.000000   0.000000 )  
               a(3) = (   0.000000   0.000000   1.000000 )  

     reciprocal axes: (cart. coord. in units 2 pi/alat)
               b(1) = (  1.000000  0.000000  0.000000 )  
               b(2) = (  0.000000  1.000000  0.000000 )  
               b(3) = (  0.000000  0.000000  1.000000 )  


     PseudoPot. # 1 for Si read from file:
     ./Si.pbe-n-rrkjus_psl.1.0.0.UPF
     MD5 check sum: 0b0bb1205258b0d07b9f9672cf965d36
     Pseudo is Ultrasoft + core correction, Zval =  4.0
     Generated using "atomic" code by A. Dal Corso  v.5.1
     Using radial grid of 1141 points,  6 beta functions with: 
                l(1) =   0
                l(2) =   0
                l(3) =   1
                l(4) =   1
                l(5) =   2
                l(6) =   2
     Q(r) pseudized with 0 coefficients 


     PseudoPot. # 2 for Fe read from file:
     ./Fe.pbe-spn-kjpaw_psl.0.2.1.UPF
     MD5 check sum: e86618425769142926afa95317d90200
     Pseudo is Projector augmented-wave + core cor, Zval = 16.0
     Generated using "atomic" code by A. Dal Corso  v.5.0.99 svn rev. 10869
     Shape of augmentation charge: PSQ
     Using radial grid of 1191 points,  6 beta functions with: 
                l(1) =   0
                l(2) =   0
                l(3) =   1
                l(4) =   1
                l(5) =   2
                l(6) =   2
     Q(r) pseudized with 0 coefficients 


     atomic species   valence    mass     pseudopotential
        Si             4.00    28.08500     Si( 1.00)
        Fe            16.00    55.84500     Fe( 1.00)

     Starting magnetic structure 
     atomic species   magnetization
        Si           1.000
        Fe           1.000

     48 Sym. Ops., with inversion, found



   Cartesian axes

     site n.     atom                  positions (alat units)
         1           Si  tau(   1) = (   0.5000000   0.5000000   0.5000000  )
         2           Fe  tau(   2) = (   0.5000000   1.0000000   1.0000000  )
         3           Fe  tau(   3) = (   1.0000000   0.5000000   1.0000000  )
         4           Fe  tau(   4) = (   1.0000000   1.0000000   0.5000000  )
         5           Fe  tau(   5) = (   0.2500000   0.2500000   0.2500000  )
         6           Fe  tau(   6) = (   0.2500000   0.7500000   0.7500000  )
         7           Fe  tau(   7) = (   0.7500000   0.2500000   0.7500000  )
         8           Fe  tau(   8) = (   0.7500000   0.7500000   0.2500000  )
         9           Fe  tau(   9) = (   0.7500000   0.7500000   0.7500000  )
        10           Fe  tau(  10) = (   0.7500000   0.2500000   0.2500000  )
        11           Fe  tau(  11) = (   0.2500000   0.7500000   0.2500000  )
        12           Fe  tau(  12) = (   0.2500000   0.2500000   0.7500000  )
        13           Si  tau(  13) = (   0.0000000   0.0000000   0.0000000  )
        14           Fe  tau(  14) = (   0.0000000   0.5000000   0.5000000  )
        15           Fe  tau(  15) = (   0.5000000   0.0000000   0.5000000  )
        16           Fe  tau(  16) = (   0.5000000   0.5000000   0.0000000  )

     number of k points=    10  Marzari-Vanderbilt smearing, width (Ry)=  0.0050
                       cart. coord. in units 2pi/alat
        k(    1) = (   0.0000000   0.0000000   0.0000000), wk =   0.0080000
        k(    2) = (   0.0000000   0.0000000   0.2000000), wk =   0.0480000
        k(    3) = (   0.0000000   0.0000000   0.4000000), wk =   0.0480000
        k(    4) = (   0.0000000   0.2000000   0.2000000), wk =   0.0960000
        k(    5) = (   0.0000000   0.2000000   0.4000000), wk =   0.1920000
        k(    6) = (   0.0000000   0.4000000   0.4000000), wk =   0.0960000
        k(    7) = (   0.2000000   0.2000000   0.2000000), wk =   0.0640000
        k(    8) = (   0.2000000   0.2000000   0.4000000), wk =   0.1920000
        k(    9) = (   0.2000000   0.4000000   0.4000000), wk =   0.1920000
        k(   10) = (   0.4000000   0.4000000   0.4000000), wk =   0.0640000

     Dense  grid:   184739 G-vectors     FFT dimensions: (  72,  72,  72)

     Smooth grid:    65117 G-vectors     FFT dimensions: (  50,  50,  50)

     Estimated max dynamical RAM per process >     159.00 MB

     Estimated total dynamical RAM >       1.24 GB

     Check: negative core charge=   -0.000071
     Generating pointlists ...
     new r_m :   0.1786 (alat units)  1.9088 (a.u.) for type    1
     new r_m :   0.1786 (alat units)  1.9088 (a.u.) for type    2

     Initial potential from superposition of free atoms

     starting charge     231.9927, renormalised to     232.0000
     Starting wfcs are  190 randomized atomic wfcs
     Checking if some PAW data can be deallocated... 

     total cpu time spent up to now is       42.0 secs

     per-process dynamical memory:    89.1 Mb

     Self-consistent Calculation

     iteration #  1     ecut=    54.00 Ry     beta= 0.70
     Davidson diagonalization with overlap
     ethr =  1.00E-02,  avg # of iterations =  2.9

     negative rho (up, down):  0.000E+00 3.157E-03

     total cpu time spent up to now is      143.9 secs

     total energy              =   -4623.40372148 Ry
     estimated scf accuracy    <      59.03883969 Ry

     total magnetization       =    46.00 Bohr mag/cell
     absolute magnetization    =    60.79 Bohr mag/cell

     iteration #  2     ecut=    54.00 Ry     beta= 0.70
     Davidson diagonalization with overlap
     ethr =  1.00E-02,  avg # of iterations =  3.0

     negative rho (up, down):  0.000E+00 2.187E-03

     total cpu time spent up to now is      238.3 secs

     total energy              =   -4626.58419899 Ry
     estimated scf accuracy    <      17.46458144 Ry

     total magnetization       =    39.69 Bohr mag/cell
     absolute magnetization    =    44.80 Bohr mag/cell

     iteration #  3     ecut=    54.00 Ry     beta= 0.70
     Davidson diagonalization with overlap
     ethr =  7.53E-03,  avg # of iterations =  3.9

     negative rho (up, down):  0.000E+00 2.471E-03

     total cpu time spent up to now is      340.7 secs

     total energy              =   -4626.35595911 Ry
     estimated scf accuracy    <      33.35168509 Ry

     total magnetization       =    31.45 Bohr mag/cell
     absolute magnetization    =    34.19 Bohr mag/cell

     iteration #  4     ecut=    54.00 Ry     beta= 0.70
     Davidson diagonalization with overlap
     ethr =  7.53E-03,  avg # of iterations =  3.6

     negative rho (up, down):  0.000E+00 2.248E-03

     total cpu time spent up to now is      441.0 secs

     total energy              =   -4627.79206602 Ry
     estimated scf accuracy    <      86.82448070 Ry

     total magnetization       =    17.62 Bohr mag/cell
     absolute magnetization    =    19.25 Bohr mag/cell

     iteration #  5     ecut=    54.00 Ry     beta= 0.70
     Davidson diagonalization with overlap
     ethr =  7.53E-03,  avg # of iterations =  2.0

     negative rho (up, down):  0.000E+00 2.069E-03

     total cpu time spent up to now is      528.9 secs

     total energy              =   -4632.46978322 Ry
     estimated scf accuracy    <       0.25019404 Ry

     total magnetization       =    29.16 Bohr mag/cell
     absolute magnetization    =    31.94 Bohr mag/cell

     iteration #  6     ecut=    54.00 Ry     beta= 0.70
     Davidson diagonalization with overlap
     ethr =  1.08E-04,  avg # of iterations =  5.3

     negative rho (up, down):  0.000E+00 1.856E-03

     total cpu time spent up to now is      664.8 secs

     total energy              =   -4632.37876185 Ry
     estimated scf accuracy    <       5.34634648 Ry

     total magnetization       =    26.72 Bohr mag/cell
     absolute magnetization    =    29.37 Bohr mag/cell

     iteration #  7     ecut=    54.00 Ry     beta= 0.70
     Davidson diagonalization with overlap
     ethr =  1.08E-04,  avg # of iterations =  4.1

     negative rho (up, down):  0.000E+00 1.592E-03

     total cpu time spent up to now is      761.7 secs

     total energy              =   -4632.63483254 Ry
     estimated scf accuracy    <       0.28960920 Ry

     total magnetization       =    28.94 Bohr mag/cell
     absolute magnetization    =    31.43 Bohr mag/cell

     iteration #  8     ecut=    54.00 Ry     beta= 0.70
     Davidson diagonalization with overlap
     ethr =  1.08E-04,  avg # of iterations =  1.8

     negative rho (up, down):  0.000E+00 1.557E-03

     total cpu time spent up to now is      842.1 secs

     total energy              =   -4632.66599707 Ry
     estimated scf accuracy    <       0.02593283 Ry

     total magnetization       =    28.56 Bohr mag/cell
     absolute magnetization    =    30.79 Bohr mag/cell

     iteration #  9     ecut=    54.00 Ry     beta= 0.70
     Davidson diagonalization with overlap
     ethr =  1.12E-05,  avg # of iterations =  3.6

     negative rho (up, down):  0.000E+00 1.553E-03

     total cpu time spent up to now is      930.6 secs

     total energy              =   -4632.66874563 Ry
     estimated scf accuracy    <       0.01140321 Ry

     total magnetization       =    28.39 Bohr mag/cell
     absolute magnetization    =    30.57 Bohr mag/cell

     iteration # 10     ecut=    54.00 Ry     beta= 0.70
     Davidson diagonalization with overlap
     ethr =  4.92E-06,  avg # of iterations =  2.6

     negative rho (up, down):  0.000E+00 1.507E-03

     total cpu time spent up to now is     1013.7 secs

     total energy              =   -4632.67044199 Ry
     estimated scf accuracy    <       0.00323235 Ry

     total magnetization       =    28.18 Bohr mag/cell
     absolute magnetization    =    30.40 Bohr mag/cell

     iteration # 11     ecut=    54.00 Ry     beta= 0.70
     Davidson diagonalization with overlap
     ethr =  1.39E-06,  avg # of iterations =  3.6

     negative rho (up, down):  0.000E+00 1.475E-03

     total cpu time spent up to now is     1108.7 secs

     total energy              =   -4632.67119301 Ry
     estimated scf accuracy    <       0.00127886 Ry

     total magnetization       =    27.93 Bohr mag/cell
     absolute magnetization    =    30.14 Bohr mag/cell

     iteration # 12     ecut=    54.00 Ry     beta= 0.70
     Davidson diagonalization with overlap
     ethr =  5.51E-07,  avg # of iterations =  4.0

     negative rho (up, down):  0.000E+00 1.406E-03

     total cpu time spent up to now is     1206.1 secs

     total energy              =   -4632.67155198 Ry
     estimated scf accuracy    <       0.00074743 Ry

     total magnetization       =    27.68 Bohr mag/cell
     absolute magnetization    =    29.90 Bohr mag/cell

     iteration # 13     ecut=    54.00 Ry     beta= 0.70
     Davidson diagonalization with overlap
     ethr =  3.22E-07,  avg # of iterations =  4.0

     negative rho (up, down):  0.000E+00 1.328E-03

     total cpu time spent up to now is     1303.5 secs

     total energy              =   -4632.67194761 Ry
     estimated scf accuracy    <       0.00039390 Ry

     total magnetization       =    27.26 Bohr mag/cell
     absolute magnetization    =    29.49 Bohr mag/cell

     iteration # 14     ecut=    54.00 Ry     beta= 0.70
     Davidson diagonalization with overlap
     ethr =  1.70E-07,  avg # of iterations =  4.0

     negative rho (up, down):  0.000E+00 1.327E-03

     total cpu time spent up to now is     1405.1 secs

     total energy              =   -4632.67246959 Ry
     estimated scf accuracy    <       0.00015121 Ry

     total magnetization       =    26.94 Bohr mag/cell
     absolute magnetization    =    29.14 Bohr mag/cell

     iteration # 15     ecut=    54.00 Ry     beta= 0.70
     Davidson diagonalization with overlap
     ethr =  6.52E-08,  avg # of iterations =  2.0

     negative rho (up, down):  0.000E+00 1.316E-03

     total cpu time spent up to now is     1488.0 secs

     total energy              =   -4632.67249172 Ry
     estimated scf accuracy    <       0.00004618 Ry

     total magnetization       =    26.92 Bohr mag/cell
     absolute magnetization    =    29.13 Bohr mag/cell

     iteration # 16     ecut=    54.00 Ry     beta= 0.70
     Davidson diagonalization with overlap
     ethr =  1.99E-08,  avg # of iterations =  3.4

     negative rho (up, down):  0.000E+00 1.317E-03

     total cpu time spent up to now is     1582.9 secs

     total energy              =   -4632.67250657 Ry
     estimated scf accuracy    <       0.00000212 Ry

     total magnetization       =    26.89 Bohr mag/cell
     absolute magnetization    =    29.08 Bohr mag/cell

     iteration # 17     ecut=    54.00 Ry     beta= 0.70
     Davidson diagonalization with overlap
     ethr =  9.12E-10,  avg # of iterations =  5.9

     negative rho (up, down):  0.000E+00 1.313E-03

     total cpu time spent up to now is     1745.9 secs

     total energy              =   -4632.67250889 Ry
     estimated scf accuracy    <       0.00000261 Ry

     total magnetization       =    26.90 Bohr mag/cell
     absolute magnetization    =    29.09 Bohr mag/cell

     iteration # 18     ecut=    54.00 Ry     beta= 0.70
     Davidson diagonalization with overlap
     ethr =  9.12E-10,  avg # of iterations =  2.4

     negative rho (up, down):  0.000E+00 1.313E-03

     total cpu time spent up to now is     1834.1 secs

     total energy              =   -4632.67250993 Ry
     estimated scf accuracy    <       0.00000019 Ry

     total magnetization       =    26.88 Bohr mag/cell
     absolute magnetization    =    29.07 Bohr mag/cell

     iteration # 19     ecut=    54.00 Ry     beta= 0.70
     Davidson diagonalization with overlap
     ethr =  8.26E-11,  avg # of iterations =  4.8

     negative rho (up, down):  0.000E+00 1.313E-03

     total cpu time spent up to now is     1950.0 secs

     total energy              =   -4632.67251004 Ry
     estimated scf accuracy    <       0.00000004 Ry

     total magnetization       =    26.88 Bohr mag/cell
     absolute magnetization    =    29.07 Bohr mag/cell

     iteration # 20     ecut=    54.00 Ry     beta= 0.70
     Davidson diagonalization with overlap
     ethr =  1.94E-11,  avg # of iterations =  3.4

     negative rho (up, down):  0.000E+00 1.313E-03

     total cpu time spent up to now is     2047.5 secs

     total energy              =   -4632.67251007 Ry
     estimated scf accuracy    <       0.00000001 Ry

     total magnetization       =    26.88 Bohr mag/cell
     absolute magnetization    =    29.07 Bohr mag/cell

     iteration # 21     ecut=    54.00 Ry     beta= 0.70
     Davidson diagonalization with overlap
     ethr =  5.68E-12,  avg # of iterations =  3.9

     negative rho (up, down):  0.000E+00 1.313E-03

     total cpu time spent up to now is     2153.4 secs

     total energy              =   -4632.67251008 Ry
     estimated scf accuracy    <       0.00000001 Ry

     total magnetization       =    26.88 Bohr mag/cell
     absolute magnetization    =    29.07 Bohr mag/cell

     iteration # 22     ecut=    54.00 Ry     beta= 0.70
     Davidson diagonalization with overlap
     ethr =  5.10E-12,  avg # of iterations =  2.0

     negative rho (up, down):  0.000E+00 1.313E-03

     Magnetic moment per site  (integrated on atomic sphere of radius R)
     atom   1 (R=0.179)  charge=  2.0499  magn= -0.1092
     atom   2 (R=0.179)  charge= 14.3795  magn=  2.3277
     atom   3 (R=0.179)  charge= 14.3795  magn=  2.3277
     atom   4 (R=0.179)  charge= 14.3795  magn=  2.3277
     atom   5 (R=0.179)  charge= 14.4356  magn=  1.7291
     atom   6 (R=0.179)  charge= 14.4356  magn=  1.7291
     atom   7 (R=0.179)  charge= 14.4356  magn=  1.7291
     atom   8 (R=0.179)  charge= 14.4356  magn=  1.7291
     atom   9 (R=0.179)  charge= 14.4356  magn=  1.7291
     atom  10 (R=0.179)  charge= 14.4356  magn=  1.7291
     atom  11 (R=0.179)  charge= 14.4356  magn=  1.7291
     atom  12 (R=0.179)  charge= 14.4356  magn=  1.7291
     atom  13 (R=0.179)  charge=  2.0499  magn= -0.1092
     atom  14 (R=0.179)  charge= 14.3795  magn=  2.3277
     atom  15 (R=0.179)  charge= 14.3795  magn=  2.3277
     atom  16 (R=0.179)  charge= 14.3795  magn=  2.3277

     total cpu time spent up to now is     2234.4 secs

     End of self-consistent calculation

 ------ SPIN UP ------------


          k = 0.0000 0.0000 0.0000 (  8217 PWs)   bands (ev):

   -70.4149 -70.4059 -70.4059 -70.4005 -70.4005 -70.3986 -69.8168 -69.8168
   -69.8168 -69.8158 -69.8113 -69.8113 -69.8113 -69.8067 -36.5954 -36.5954
   -36.5954 -36.5549 -36.5549 -36.5549 -36.4968 -36.4968 -36.4968 -36.4200
   -36.4200 -36.4200 -36.3752 -36.3752 -36.3752 -36.3557 -36.3557 -36.3557
   -35.9324 -35.9324 -35.9087 -35.9087 -35.9087 -35.8728 -35.8597 -35.8597
   -35.8597 -35.8557 -35.8557 -35.8557 -35.8537 -35.8537 -35.8460 -35.8460
   -35.8460 -35.8103 -35.8103 -35.8103 -35.8079 -35.8079 -35.8079 -35.7903
     7.2754   9.2693  11.6931  12.0365  12.0365  12.0365  12.9202  12.9202
    13.0540  13.0540  13.0540  13.2340  13.2340  13.4104  13.4104  14.4333
    14.4333  14.4333  14.4381  14.4381  14.4381  14.6779  14.7151  14.7151
    14.7151  15.0109  15.0109  15.0109  15.0304  15.0304  15.0304  15.2978
    15.2978  15.4287  15.4287  15.4287  15.7821  15.7821  15.7821  16.0519
    16.0519  16.0519  16.2203  16.2203  16.2203  16.2485  16.2485  16.2485
    16.3219  16.3219  16.3219  16.3750  16.5349  16.6789  16.6789  16.7889
    16.8202  16.8202  16.9767  17.0426  17.0426  17.2634  17.2634  17.2634
    17.2666  17.2666  17.2666  17.3079  17.3079  17.3688  17.3688  18.0609
    18.0609  18.0609  18.1972  18.1972  18.1972  18.2585  18.2585  18.2585
    18.3526  18.3526  18.3526

          k = 0.0000 0.0000 0.2000 (  8173 PWs)   bands (ev):

   -70.4140 -70.4066 -70.4053 -70.4011 -70.4004 -70.3982 -69.8168 -69.8162
   -69.8162 -69.8159 -69.8119 -69.8119 -69.8108 -69.8062 -36.5919 -36.5916
   -36.5916 -36.5591 -36.5587 -36.5587 -36.4899 -36.4899 -36.4850 -36.4279
   -36.4279 -36.4158 -36.3796 -36.3735 -36.3735 -36.3715 -36.3577 -36.3577
   -35.9231 -35.9218 -35.9030 -35.9023 -35.9023 -35.8684 -35.8607 -35.8591
   -35.8583 -35.8578 -35.8578 -35.8573 -35.8573 -35.8543 -35.8526 -35.8489
   -35.8489 -35.8181 -35.8113 -35.8113 -35.8093 -35.8093 -35.8067 -35.7927
     7.4439   9.0914  11.7491  11.7775  12.1668  12.1668  12.9910  13.0227
    13.0256  13.0256  13.1961  13.2708  13.3202  13.3437  13.4963  14.2067
    14.3848  14.3848  14.4289  14.4634  14.4634  14.5200  14.5359  14.8149
    14.8149  14.8436  14.8532  14.8532  14.9796  14.9796  15.0951  15.2947
    15.2947  15.3111  15.3756  15.5565  15.6159  15.7496  15.7496  15.8341
    15.8341  16.0838  16.1285  16.2789  16.2789  16.2824  16.2950  16.3282
    16.3282  16.4037  16.4221  16.6156  16.6649  16.7720  16.8051  16.8051
    16.8065  16.8423  16.9140  16.9140  16.9235  17.1951  17.2501  17.2550
    17.2640  17.2702  17.2849  17.3053  17.3053  17.3136  17.4728  17.8788
    17.8788  18.0802  18.0802  18.1065  18.1065  18.1292  18.2701  18.2766
    18.6883  19.0097  19.0097

          k = 0.0000 0.0000 0.4000 (  8165 PWs)   bands (ev):

   -70.4113 -70.4086 -70.4040 -70.4024 -70.3999 -70.3991 -69.8165 -69.8160
   -69.8148 -69.8148 -69.8133 -69.8133 -69.8094 -69.8078 -36.5822 -36.5814
   -36.5814 -36.5697 -36.5688 -36.5688 -36.4716 -36.4716 -36.4528 -36.4480
   -36.4480 -36.4098 -36.4049 -36.3910 -36.3689 -36.3689 -36.3629 -36.3629
   -35.9002 -35.8972 -35.8883 -35.8864 -35.8864 -35.8761 -35.8712 -35.8711
   -35.8685 -35.8685 -35.8576 -35.8558 -35.8558 -35.8539 -35.8539 -35.8512
   -35.8512 -35.8369 -35.8128 -35.8128 -35.8119 -35.8119 -35.8033 -35.7981
     7.9155   8.5591  11.6623  11.7760  12.5025  12.5025  12.8583  12.8583
    13.1010  13.1787  13.2402  13.3203  13.3642  13.5819  13.7388  13.7471
    14.0793  14.0909  14.3127  14.3127  14.3847  14.3847  14.6661  14.6661
    14.7689  14.8230  14.8230  14.8386  15.1425  15.2406  15.2406  15.2703
    15.2703  15.2806  15.3344  15.3705  15.4513  15.4540  15.4540  15.6885
    15.8990  15.8990  16.0537  16.0537  16.0671  16.2839  16.3839  16.3839
    16.3919  16.4394  16.4598  16.6046  16.7089  16.7125  16.7339  16.7339
    16.8110  16.8860  16.9479  17.0264  17.1147  17.1147  17.2507  17.2611
    17.2797  17.2910  17.3109  17.3109  17.6285  17.6719  17.7503  17.7503
    17.7711  17.9321  18.0321  18.0595  18.0595  18.1109  18.1135  18.1135
    19.8656  19.8656  20.2246

          k = 0.0000 0.2000 0.2000 (  8216 PWs)   bands (ev):

   -70.4130 -70.4068 -70.4055 -70.4014 -70.4007 -70.3988 -69.8166 -69.8163
   -69.8158 -69.8158 -69.8124 -69.8115 -69.8115 -69.8071 -36.5905 -36.5883
   -36.5873 -36.5639 -36.5618 -36.5609 -36.4842 -36.4829 -36.4743 -36.4341
   -36.4272 -36.4189 -36.3826 -36.3757 -36.3742 -36.3721 -36.3672 -36.3594
   -35.9162 -35.9146 -35.9036 -35.8980 -35.8913 -35.8651 -35.8640 -35.8635
   -35.8626 -35.8609 -35.8595 -35.8594 -35.8553 -35.8548 -35.8542 -35.8490
   -35.8472 -35.8212 -35.8142 -35.8121 -35.8108 -35.8085 -35.8078 -35.7950
     7.6057   8.9989  11.5064  11.7547  12.2465  12.2917  12.8653  13.0663
    13.1008  13.1086  13.2597  13.2696  13.4173  13.4467  13.5454  14.1137
    14.3106  14.3315  14.3625  14.4998  14.5085  14.5673  14.6143  14.6149
    14.6535  14.7143  14.7272  14.8449  14.9552  15.0332  15.0671  15.2507
    15.3564  15.3765  15.4171  15.4358  15.4545  15.4899  15.8558  15.9739
    16.0084  16.0484  16.0882  16.1914  16.2344  16.2664  16.3192  16.3492
    16.3965  16.4428  16.4709  16.4721  16.5344  16.6378  16.6894  16.7002
    16.7828  16.8212  16.9006  16.9367  17.1199  17.1507  17.1584  17.1680
    17.2102  17.2109  17.2876  17.3932  17.4232  17.4311  17.4637  17.5314
    17.7227  17.8443  18.1668  18.2354  18.2773  18.3078  18.4922  18.5855
    19.0362  19.1564  19.5272

          k = 0.0000 0.2000 0.4000 (  8200 PWs)   bands (ev):

   -70.4108 -70.4083 -70.4043 -70.4027 -70.4002 -70.3995 -69.8164 -69.8161
   -69.8150 -69.8145 -69.8138 -69.8126 -69.8099 -69.8083 -36.5838 -36.5800
   -36.5787 -36.5737 -36.5698 -36.5686 -36.4690 -36.4650 -36.4499 -36.4450
   -36.4431 -36.4090 -36.4066 -36.3941 -36.3729 -36.3707 -36.3685 -36.3636
   -35.8998 -35.8961 -35.8940 -35.8868 -35.8803 -35.8783 -35.8755 -35.8747
   -35.8729 -35.8619 -35.8619 -35.8598 -35.8515 -35.8510 -35.8492 -35.8491
   -35.8473 -35.8339 -35.8158 -35.8141 -35.8129 -35.8113 -35.8048 -35.8000
     8.0496   8.6166  11.3479  11.5866  12.5179  12.6093  12.7577  12.9358
    13.1001  13.2963  13.3006  13.4035  13.4974  13.6310  13.7802  13.8147
    14.1175  14.1437  14.2825  14.3723  14.4033  14.4224  14.5823  14.6029
    14.6602  14.7829  14.8166  14.9230  14.9423  15.1128  15.1198  15.1933
    15.2265  15.2787  15.3458  15.3687  15.4054  15.4226  15.4924  15.7535
    15.7597  15.8170  16.0460  16.2353  16.2503  16.2671  16.2757  16.3030
    16.3694  16.4623  16.5228  16.5542  16.5948  16.6824  16.6864  16.8124
    16.8369  16.8476  16.8932  16.9697  16.9894  17.0257  17.0667  17.1210
    17.1463  17.1814  17.2583  17.3072  17.3425  17.5052  17.6113  17.6116
    17.7036  17.8882  17.9813  18.1425  18.3975  18.6000  18.8970  19.0161
    19.7430  19.9439  20.4943

          k = 0.0000 0.4000 0.4000 (  8162 PWs)   bands (ev):

   -70.4090 -70.4078 -70.4045 -70.4035 -70.4006 -70.4001 -69.8159 -69.8158
   -69.8149 -69.8143 -69.8129 -69.8114 -69.8114 -69.8094 -36.5832 -36.5794
   -36.5765 -36.5750 -36.5726 -36.5711 -36.4626 -36.4553 -36.4496 -36.4373
   -36.4247 -36.4140 -36.4048 -36.4039 -36.3853 -36.3814 -36.3672 -36.3654
   -35.8975 -35.8926 -35.8911 -35.8902 -35.8858 -35.8850 -35.8832 -35.8799
   -35.8674 -35.8668 -35.8613 -35.8542 -35.8497 -35.8490 -35.8436 -35.8424
   -35.8397 -35.8311 -35.8220 -35.8193 -35.8128 -35.8111 -35.8066 -35.8040
     8.3793   8.6379  10.9410  11.1083  12.7472  12.8486  12.9808  13.0000
    13.0025  13.3708  13.3750  13.3829  13.6913  13.8581  13.9213  13.9877
    14.0959  14.1520  14.2915  14.3325  14.3339  14.4746  14.4895  14.5156
    14.5485  14.5732  14.8416  14.8534  14.8741  14.9214  15.0053  15.0596
    15.1754  15.2371  15.2459  15.2702  15.3372  15.3451  15.3733  15.4364
    15.7232  15.8980  16.1773  16.2239  16.2590  16.3471  16.3685  16.3810
    16.3840  16.5256  16.5307  16.5851  16.5973  16.6647  16.6783  16.7518
    16.7542  16.8119  16.8226  16.8240  16.8339  16.8369  16.9099  16.9100
    16.9821  17.0171  17.0307  17.1620  17.3341  17.3630  17.6041  17.6177
    17.9605  18.1418  18.2348  18.2921  18.8870  18.9404  19.1915  19.5012
    19.5203  20.0867  20.6615

          k = 0.2000 0.2000 0.2000 (  8172 PWs)   bands (ev):

   -70.4120 -70.4061 -70.4061 -70.4011 -70.4011 -70.3991 -69.8162 -69.8157
   -69.8157 -69.8157 -69.8118 -69.8118 -69.8118 -69.8073 -36.5878 -36.5878
   -36.5833 -36.5662 -36.5662 -36.5621 -36.4808 -36.4696 -36.4696 -36.4337
   -36.4260 -36.4260 -36.3813 -36.3813 -36.3746 -36.3746 -36.3704 -36.3665
   -35.9099 -35.9099 -35.8975 -35.8975 -35.8863 -35.8707 -35.8707 -35.8686
   -35.8611 -35.8582 -35.8570 -35.8570 -35.8537 -35.8537 -35.8527 -35.8527
   -35.8499 -35.8219 -35.8153 -35.8153 -35.8102 -35.8096 -35.8096 -35.7974
     7.7604   8.9506  11.6522  11.6522  11.7450  12.6540  12.9242  12.9242
    12.9883  13.2269  13.2269  13.5286  13.5286  13.5344  13.5344  14.0856
    14.2381  14.3167  14.3167  14.3965  14.5039  14.5759  14.6000  14.6000
    14.6742  14.6742  14.8336  14.8336  14.9450  14.9450  15.0592  15.2303
    15.2303  15.3576  15.3576  15.3877  15.3877  15.4592  15.6863  15.7780
    16.0945  16.0945  16.1467  16.1467  16.1469  16.2489  16.2489  16.2722
    16.2722  16.3966  16.4768  16.5822  16.6706  16.7376  16.7376  16.7408
    16.8171  16.8171  16.8885  16.8885  16.9839  17.0139  17.0990  17.0990
    17.1313  17.1799  17.1799  17.2307  17.2307  17.5693  17.5693  17.8408
    17.8408  17.8913  17.9141  18.2622  18.4609  18.4609  18.7586  18.7586
    19.2497  19.2497  20.3980

          k = 0.2000 0.2000 0.4000 (  8176 PWs)   bands (ev):

   -70.4099 -70.4079 -70.4046 -70.4025 -70.4007 -70.4000 -69.8162 -69.8158
   -69.8147 -69.8145 -69.8129 -69.8128 -69.8105 -69.8088 -36.5829 -36.5809
   -36.5758 -36.5747 -36.5726 -36.5679 -36.4653 -36.4577 -36.4442 -36.4436
   -36.4407 -36.4129 -36.4045 -36.3957 -36.3777 -36.3724 -36.3722 -36.3704
   -35.8972 -35.8948 -35.8927 -35.8830 -35.8824 -35.8810 -35.8799 -35.8749
   -35.8656 -35.8637 -35.8618 -35.8597 -35.8515 -35.8504 -35.8497 -35.8483
   -35.8458 -35.8315 -35.8164 -35.8161 -35.8139 -35.8134 -35.8069 -35.8025
     8.1769   8.6734  11.3466  11.5423  12.0414  12.5270  12.9008  13.0164
    13.0494  13.3701  13.4030  13.4590  13.6024  13.7339  13.8125  13.8565
    14.1508  14.1549  14.3102  14.3159  14.3206  14.5680  14.6546  14.6655
    14.6825  14.7674  14.7861  14.8274  14.9327  14.9903  15.0705  15.1945
    15.1963  15.2176  15.2221  15.2299  15.3105  15.3165  15.5119  15.5628
    15.5960  15.6281  16.1196  16.2113  16.2571  16.2743  16.3558  16.3651
    16.3836  16.4767  16.5161  16.5484  16.5824  16.6897  16.7250  16.7596
    16.7944  16.8235  16.8456  16.8794  16.9421  16.9745  17.0361  17.0728
    17.0739  17.1156  17.2429  17.3766  17.4484  17.4493  17.7353  17.7354
    17.7973  17.8055  17.9255  18.0170  18.5978  18.8751  19.0149  19.4558
    19.6276  19.7780  20.7757

          k = 0.2000 0.4000 0.4000 (  8159 PWs)   bands (ev):

   -70.4084 -70.4071 -70.4046 -70.4034 -70.4011 -70.4007 -69.8156 -69.8155
   -69.8146 -69.8139 -69.8132 -69.8116 -69.8115 -69.8100 -36.5818 -36.5786
   -36.5783 -36.5751 -36.5721 -36.5692 -36.4559 -36.4477 -36.4438 -36.4342
   -36.4248 -36.4178 -36.4044 -36.4037 -36.3893 -36.3867 -36.3748 -36.3740
   -35.8931 -35.8887 -35.8874 -35.8874 -35.8851 -35.8832 -35.8811 -35.8732
   -35.8651 -35.8647 -35.8639 -35.8573 -35.8527 -35.8508 -35.8471 -35.8466
   -35.8372 -35.8290 -35.8235 -35.8196 -35.8158 -35.8129 -35.8107 -35.8076
     8.4823   8.7056  11.1103  11.2303  12.1515  12.4997  12.7758  12.9344
    13.2662  13.4916  13.5095  13.5334  13.7091  13.9302  13.9655  14.0011
    14.0873  14.2027  14.2803  14.3083  14.3121  14.5198  14.5435  14.5974
    14.7381  14.7601  14.7928  14.8395  14.8538  14.8739  14.9661  14.9819
    15.1006  15.1130  15.1239  15.1466  15.1837  15.1869  15.2917  15.3094
    15.5109  15.5223  16.0801  16.1905  16.1959  16.2048  16.2749  16.3332
    16.5169  16.5396  16.5551  16.5895  16.6427  16.7371  16.7579  16.7949
    16.8252  16.8407  16.8440  16.9106  16.9265  16.9450  16.9758  16.9817
    17.0120  17.0768  17.0772  17.2755  17.3753  17.5016  17.5956  17.6344
    17.8986  17.9476  18.0068  18.2304  18.6435  19.0346  19.2984  19.7241
    19.7662  20.4313  21.5421

          k = 0.4000 0.4000 0.4000 (  8186 PWs)   bands (ev):

   -70.4069 -70.4053 -70.4053 -70.4031 -70.4031 -70.4021 -69.8150 -69.8147
   -69.8137 -69.8137 -69.8130 -69.8126 -69.8126 -69.8111 -36.5789 -36.5789
   -36.5777 -36.5777 -36.5692 -36.5681 -36.4412 -36.4288 -36.4275 -36.4275
   -36.4254 -36.4254 -36.4037 -36.4037 -36.3988 -36.3988 -36.3975 -36.3878
   -35.8834 -35.8834 -35.8823 -35.8804 -35.8804 -35.8747 -35.8747 -35.8710
   -35.8652 -35.8652 -35.8620 -35.8577 -35.8574 -35.8574 -35.8541 -35.8541
   -35.8326 -35.8251 -35.8251 -35.8236 -35.8198 -35.8198 -35.8166 -35.8138
     8.7033   8.8007  11.4154  11.5797  11.5797  12.2169  12.2169  12.5822
    13.5316  13.7320  13.7320  13.7671  13.7671  13.8361  14.0872  14.1088
    14.1088  14.3277  14.3277  14.3546  14.4733  14.5800  14.5933  14.5933
    14.6523  14.6523  14.6833  14.8075  14.8075  14.8418  14.8606  14.8606
    14.9230  14.9230  14.9582  14.9582  15.0085  15.2208  15.2327  15.2327
    15.2460  15.2460  15.9614  15.9874  15.9874  16.0606  16.0606  16.1131
    16.6208  16.6390  16.6390  16.7000  16.7446  16.7446  16.8074  16.8198
    16.8198  16.9155  16.9155  16.9331  17.0565  17.0565  17.1048  17.1338
    17.1822  17.1822  17.4591  17.4591  17.5514  17.5514  17.6000  17.6101
    17.6560  17.6560  17.9378  18.0416  18.0416  18.5261  20.1391  20.6730
    20.6730  21.6302  21.6302

 ------ SPIN DOWN ----------


          k = 0.0000 0.0000 0.0000 (  8217 PWs)   bands (ev):

   -67.8013 -67.7649 -67.7649 -67.7649 -67.7590 -67.7590 -67.7590 -67.7536
   -67.6533 -67.6533 -67.6473 -67.6473 -67.6448 -67.6258 -34.0775 -34.0775
   -34.0775 -34.0510 -34.0510 -34.0510 -33.9420 -33.9206 -33.9206 -33.9206
   -33.9099 -33.9099 -33.9081 -33.9081 -33.9081 -33.8504 -33.8447 -33.8447
   -33.8447 -33.8288 -33.8288 -33.8288 -33.8219 -33.8219 -33.8153 -33.8153
   -33.8153 -33.7723 -33.7723 -33.7723 -33.6991 -33.6991 -33.6991 -33.6915
   -33.6915 -33.6915 -33.6138 -33.6138 -33.6138 -33.5938 -33.5938 -33.5938
     7.2732   9.2301  12.2818  12.3062  12.3062  12.3062  13.7568  13.7568
    14.1238  14.1238  14.2064  14.2064  14.2064  14.9183  14.9183  15.3330
    15.3330  15.3330  15.3617  15.3617  15.3617  15.9265  15.9265  15.9265
    16.1346  16.1346  16.1346  16.5162  16.5162  16.5162  16.7972  16.7972
    16.7972  17.0175  17.3697  17.3697  17.3697  17.5986  17.5986  17.5986
    17.6378  17.6378  17.6378  17.8100  17.8100  17.8319  17.8319  17.8319
    18.2919  18.2919  18.2919  18.3180  18.3180  18.3180  18.5374  18.5374
    18.5393  19.1237  19.3136  19.3136  19.3136  19.3653  19.3716  19.3716
    19.5266  19.5266  19.5464  19.5464  19.5464  19.5973  19.5973  19.7668
    20.0496  20.0496  20.0496  20.0776  20.0776  20.1149  20.1149  20.1149
    20.2751  20.2751  20.2751

          k = 0.0000 0.0000 0.2000 (  8173 PWs)   bands (ev):

   -67.7983 -67.7692 -67.7643 -67.7643 -67.7596 -67.7596 -67.7584 -67.7535
   -67.6526 -67.6504 -67.6480 -67.6472 -67.6442 -67.6278 -34.0648 -34.0645
   -34.0645 -34.0432 -34.0399 -34.0399 -33.9507 -33.9325 -33.9325 -33.9320
   -33.9273 -33.9229 -33.9155 -33.9155 -33.9015 -33.8879 -33.8879 -33.8582
   -33.8582 -33.8535 -33.8437 -33.8281 -33.8265 -33.8226 -33.7888 -33.7757
   -33.7757 -33.7573 -33.7320 -33.7320 -33.6993 -33.6964 -33.6964 -33.6896
   -33.6896 -33.6829 -33.6272 -33.6208 -33.6208 -33.6035 -33.6035 -33.6006
     7.4384   9.0497  12.0199  12.2707  12.4499  12.4499  13.8626  13.9637
    13.9637  14.0403  14.1167  14.1543  14.3662  14.7035  15.0199  15.1604
    15.3731  15.3731  15.3873  15.3873  15.7925  15.9195  15.9581  15.9581
    16.0261  16.1749  16.1749  16.3327  16.6135  16.6135  16.6152  16.6774
    16.6774  16.8807  17.0997  17.2542  17.2542  17.2901  17.4373  17.4373
    17.7587  17.7587  17.7881  17.8480  17.8512  17.8940  17.9433  17.9433
    17.9594  17.9594  18.1623  18.2836  18.4834  18.6248  18.6248  18.8876
    18.9634  19.0912  19.2378  19.2378  19.2615  19.3247  19.4046  19.4166
    19.4867  19.5267  19.5509  19.5930  19.5982  19.7046  19.7046  19.8628
    19.9699  19.9699  19.9866  20.0355  20.0507  20.0507  20.0899  20.1737
    20.4374  20.4964  20.4964

          k = 0.0000 0.0000 0.4000 (  8165 PWs)   bands (ev):

   -67.7899 -67.7790 -67.7628 -67.7628 -67.7611 -67.7611 -67.7569 -67.7551
   -67.6512 -67.6494 -67.6467 -67.6466 -67.6411 -67.6335 -34.0294 -34.0289
   -34.0289 -34.0207 -34.0070 -34.0070 -33.9861 -33.9809 -33.9809 -33.9801
   -33.9536 -33.9536 -33.9320 -33.9280 -33.9013 -33.9013 -33.8844 -33.8809
   -33.8809 -33.8652 -33.8407 -33.8350 -33.8264 -33.8243 -33.7515 -33.7377
   -33.7377 -33.7207 -33.7138 -33.7114 -33.7114 -33.6766 -33.6766 -33.6663
   -33.6663 -33.6639 -33.6505 -33.6402 -33.6402 -33.6318 -33.6318 -33.6204
     7.8995   8.5268  11.9086  12.1198  12.8512  12.8512  13.4159  13.4159
    14.0034  14.0803  14.1867  14.2337  14.7613  14.8046  14.9168  15.3148
    15.3934  15.4412  15.4412  15.4643  15.4643  15.7714  16.0690  16.0690
    16.2442  16.2442  16.3148  16.3152  16.5563  16.5563  16.6994  16.7410
    16.7596  16.7596  16.7598  16.8996  16.9676  16.9676  17.0296  17.0500
    17.0500  17.3313  17.6354  17.6354  17.8741  17.8741  18.0678  18.3014
    18.4333  18.4697  18.4697  18.6180  18.8644  18.9303  18.9350  18.9517
    18.9517  19.1332  19.1332  19.2809  19.3552  19.3831  19.4205  19.4688
    19.5144  19.5618  19.5698  19.5848  19.5851  19.5851  19.6719  19.6936
    19.8043  19.8809  19.9030  19.9030  20.0257  20.0257  20.1234  20.1367
    21.0742  21.0742  21.3491

          k = 0.0000 0.2000 0.2000 (  8216 PWs)   bands (ev):

   -67.7954 -67.7694 -67.7673 -67.7638 -67.7605 -67.7591 -67.7591 -67.7542
   -67.6512 -67.6491 -67.6479 -67.6474 -67.6444 -67.6297 -34.0618 -34.0525
   -34.0517 -34.0352 -34.0301 -34.0246 -33.9692 -33.9601 -33.9484 -33.9434
   -33.9265 -33.9256 -33.9110 -33.9083 -33.9080 -33.9027 -33.8737 -33.8665
   -33.8562 -33.8555 -33.8530 -33.8388 -33.8303 -33.8265 -33.7922 -33.7847
   -33.7547 -33.7385 -33.7146 -33.7123 -33.7090 -33.6992 -33.6980 -33.6833
   -33.6742 -33.6650 -33.6533 -33.6269 -33.6158 -33.6136 -33.6113 -33.6005
     7.5962   8.9526  11.7003  12.1766  12.5865  12.5879  13.6527  13.8848
    13.9667  14.1345  14.2846  14.3875  14.3975  14.7411  14.9853  15.0584
    15.3790  15.4325  15.4487  15.5434  15.8410  15.9189  15.9846  16.0065
    16.0749  16.0898  16.1813  16.2125  16.3974  16.5565  16.6260  16.6730
    16.8071  16.8126  17.0017  17.0168  17.0995  17.1302  17.4017  17.4205
    17.4541  17.4975  17.5351  17.7944  17.8299  17.9317  18.0369  18.0623
    18.1212  18.1235  18.2888  18.4187  18.4525  18.5417  18.8460  18.9990
    19.1751  19.1946  19.1993  19.2275  19.2527  19.2988  19.3603  19.4723
    19.4743  19.4783  19.5223  19.5646  19.6018  19.6812  19.7112  19.7225
    19.8149  19.8844  19.9062  20.0598  20.0872  20.1458  20.2112  20.3516
    20.6616  20.6765  20.8900

          k = 0.0000 0.2000 0.4000 (  8200 PWs)   bands (ev):

   -67.7878 -67.7778 -67.7656 -67.7630 -67.7624 -67.7604 -67.7575 -67.7556
   -67.6498 -67.6486 -67.6468 -67.6461 -67.6417 -67.6350 -34.0393 -34.0298
   -34.0203 -34.0135 -34.0041 -34.0011 -33.9982 -33.9820 -33.9817 -33.9792
   -33.9557 -33.9340 -33.9278 -33.9168 -33.8985 -33.8913 -33.8911 -33.8736
   -33.8724 -33.8666 -33.8482 -33.8408 -33.8385 -33.8323 -33.7670 -33.7577
   -33.7377 -33.7263 -33.7225 -33.7154 -33.7082 -33.6939 -33.6750 -33.6688
   -33.6658 -33.6442 -33.6439 -33.6404 -33.6358 -33.6337 -33.6218 -33.6121
     8.0279   8.5766  11.5325  11.8268  12.9413  12.9621  13.3723  13.4665
    13.9247  14.2462  14.4400  14.5172  14.7782  14.8429  14.9210  15.2481
    15.3541  15.4233  15.5415  15.5594  15.5748  15.8118  16.0503  16.1013
    16.1632  16.1763  16.3039  16.3163  16.3192  16.4698  16.6162  16.6543
    16.6811  16.7695  16.7837  16.8030  16.8417  16.8768  16.9263  16.9702
    17.0654  17.3375  17.6249  17.7854  17.8020  17.8604  18.1078  18.1736
    18.3562  18.3870  18.5794  18.7410  18.7520  18.8202  18.8516  18.8942
    18.9994  19.0084  19.1834  19.2170  19.2636  19.3487  19.3778  19.4553
    19.5218  19.5611  19.5786  19.5835  19.5855  19.6021  19.6517  19.6889
    19.7335  19.8268  19.8398  20.0366  20.1917  20.2743  20.3566  20.5654
    21.1043  21.3003  21.6298

          k = 0.0000 0.4000 0.4000 (  8162 PWs)   bands (ev):

   -67.7818 -67.7756 -67.7704 -67.7671 -67.7607 -67.7590 -67.7590 -67.7569
   -67.6478 -67.6473 -67.6462 -67.6442 -67.6425 -67.6383 -34.0356 -34.0279
   -34.0207 -34.0179 -34.0088 -33.9998 -33.9997 -33.9852 -33.9824 -33.9661
   -33.9327 -33.9218 -33.9191 -33.8929 -33.8928 -33.8926 -33.8745 -33.8730
   -33.8690 -33.8685 -33.8560 -33.8559 -33.8548 -33.8468 -33.7791 -33.7766
   -33.7627 -33.7525 -33.7316 -33.7204 -33.7091 -33.7039 -33.6627 -33.6597
   -33.6535 -33.6533 -33.6480 -33.6405 -33.6198 -33.6182 -33.6125 -33.6089
     8.3407   8.5862  11.1027  11.2740  13.2307  13.2626  13.4594  13.6564
    13.6598  14.0973  14.6541  14.7121  14.8842  15.0985  15.1161  15.1997
    15.3356  15.4695  15.6285  15.7145  15.7148  15.7856  15.8840  15.9747
    15.9810  16.0661  16.2659  16.3432  16.3891  16.4536  16.4561  16.4936
    16.4940  16.5229  16.5967  16.6406  16.7712  16.7921  16.7954  16.7956
    17.3005  17.4891  17.6646  17.7109  17.7784  17.7828  17.9192  18.0783
    18.2719  18.4405  18.5783  18.5939  18.6920  18.8731  18.9808  19.0188
    19.0265  19.0383  19.0640  19.0953  19.1539  19.2375  19.3442  19.4233
    19.4710  19.4894  19.5368  19.5577  19.5719  19.6156  19.6484  19.6837
    19.7301  19.7882  20.0358  20.1470  20.4768  20.5645  20.7351  20.7992
    21.0880  21.4855  21.8890

          k = 0.2000 0.2000 0.2000 (  8172 PWs)   bands (ev):

   -67.7926 -67.7684 -67.7684 -67.7654 -67.7599 -67.7599 -67.7595 -67.7547
   -67.6489 -67.6489 -67.6474 -67.6474 -67.6445 -67.6313 -34.0540 -34.0452
   -34.0452 -34.0222 -34.0175 -34.0175 -33.9825 -33.9724 -33.9724 -33.9255
   -33.9243 -33.9243 -33.9204 -33.9204 -33.8942 -33.8920 -33.8798 -33.8798
   -33.8670 -33.8670 -33.8585 -33.8548 -33.8345 -33.8345 -33.7816 -33.7563
   -33.7563 -33.7217 -33.7217 -33.7139 -33.7139 -33.6955 -33.6868 -33.6854
   -33.6737 -33.6545 -33.6545 -33.6209 -33.6209 -33.6198 -33.6198 -33.6037
     7.7465   8.8990  11.8563  11.8563  12.0800  13.1443  13.5686  13.5686
    13.8548  14.4001  14.4001  14.5979  14.5979  14.8822  14.8822  14.9462
    15.4339  15.4339  15.4857  15.7616  15.8426  15.8426  15.9958  16.0762
    16.0949  16.0949  16.1018  16.1018  16.4369  16.4369  16.6154  16.6154
    16.7774  16.8983  16.8983  16.9347  17.0367  17.0367  17.1615  17.1839
    17.1940  17.1940  17.6439  17.6439  17.8147  17.8147  18.1312  18.1533
    18.2310  18.3128  18.5423  18.5423  18.6222  18.6222  18.7602  18.8865
    19.0695  19.1370  19.1370  19.2942  19.2942  19.3933  19.3933  19.4766
    19.4766  19.4800  19.4800  19.5151  19.6007  19.6766  19.7786  19.7786
    19.8040  19.8040  19.9250  20.0225  20.1948  20.1948  20.2629  20.2629
    20.8255  20.8255  21.6177

          k = 0.2000 0.2000 0.4000 (  8176 PWs)   bands (ev):

   -67.7855 -67.7764 -67.7658 -67.7640 -67.7624 -67.7615 -67.7582 -67.7563
   -67.6484 -67.6477 -67.6467 -67.6460 -67.6423 -67.6360 -34.0323 -34.0301
   -34.0172 -34.0075 -34.0075 -34.0014 -33.9929 -33.9881 -33.9758 -33.9727
   -33.9418 -33.9247 -33.9240 -33.9216 -33.9059 -33.8978 -33.8856 -33.8811
   -33.8666 -33.8658 -33.8611 -33.8558 -33.8510 -33.8449 -33.7611 -33.7520
   -33.7350 -33.7297 -33.7224 -33.7191 -33.7098 -33.6944 -33.6855 -33.6670
   -33.6561 -33.6466 -33.6398 -33.6357 -33.6332 -33.6307 -33.6223 -33.6134
     8.1488   8.6255  11.5224  11.7417  12.2936  12.9176  13.4872  13.6286
    13.9154  14.3006  14.6477  14.7367  14.8671  14.8880  14.9527  15.2233
    15.3826  15.4599  15.5583  15.5847  15.7487  15.8478  16.0567  16.1337
    16.1438  16.1512  16.2136  16.2886  16.3003  16.4086  16.5916  16.6106
    16.6568  16.6576  16.6742  16.7016  16.7308  16.7509  16.8089  16.9401
    17.0859  17.1486  17.6062  17.7636  17.7734  17.7800  17.9680  18.0749
    18.4409  18.5179  18.5497  18.6938  18.8356  18.8946  18.9313  18.9808
    19.0637  19.0937  19.1044  19.1590  19.2815  19.3340  19.4138  19.4872
    19.4985  19.5255  19.5726  19.5761  19.5949  19.6265  19.6489  19.6848
    19.6915  19.7880  19.8433  19.9006  20.2034  20.4047  20.5734  20.7206
    21.0352  21.1625  21.9122

          k = 0.2000 0.4000 0.4000 (  8159 PWs)   bands (ev):

   -67.7800 -67.7741 -67.7698 -67.7664 -67.7625 -67.7605 -67.7597 -67.7579
   -67.6467 -67.6466 -67.6459 -67.6443 -67.6429 -67.6391 -34.0255 -34.0178
   -34.0137 -34.0114 -34.0061 -33.9980 -33.9865 -33.9862 -33.9750 -33.9568
   -33.9386 -33.9172 -33.9142 -33.9066 -33.9012 -33.8971 -33.8945 -33.8841
   -33.8804 -33.8783 -33.8770 -33.8715 -33.8678 -33.8613 -33.7630 -33.7505
   -33.7466 -33.7412 -33.7154 -33.7132 -33.7088 -33.6977 -33.6704 -33.6627
   -33.6521 -33.6480 -33.6475 -33.6430 -33.6237 -33.6219 -33.6200 -33.6156
     8.4359   8.6461  11.2758  11.3901  12.4000  12.8078  13.2508  13.4655
    14.2115  14.3595  14.7489  14.8602  15.0293  15.0451  15.2256  15.3639
    15.4296  15.5337  15.6379  15.6812  15.8333  15.9193  16.0057  16.0190
    16.0406  16.0948  16.1885  16.2906  16.3470  16.4055  16.4272  16.4455
    16.4668  16.4959  16.5522  16.6073  16.6134  16.6665  16.7109  16.7317
    17.0592  17.0857  17.5918  17.6139  17.6503  17.6888  17.7798  17.7888
    18.5636  18.6554  18.8146  18.8248  18.8656  18.9521  19.0386  19.0536
    19.0658  19.1226  19.1502  19.1850  19.2556  19.3169  19.3402  19.3437
    19.4649  19.4655  19.4961  19.5225  19.5510  19.5913  19.5923  19.6985
    19.7491  19.8361  19.8673  19.9093  20.3484  20.5482  20.7703  21.0034
    21.0160  21.5577  22.5901

          k = 0.4000 0.4000 0.4000 (  8186 PWs)   bands (ev):

   -67.7754 -67.7701 -67.7701 -67.7654 -67.7650 -67.7650 -67.7613 -67.7600
   -67.6454 -67.6454 -67.6449 -67.6440 -67.6440 -67.6412 -33.9991 -33.9991
   -33.9985 -33.9985 -33.9929 -33.9916 -33.9825 -33.9571 -33.9571 -33.9519
   -33.9519 -33.9394 -33.9219 -33.9219 -33.9177 -33.9166 -33.9166 -33.9034
   -33.9005 -33.8968 -33.8968 -33.8825 -33.8825 -33.8699 -33.7468 -33.7463
   -33.7099 -33.7099 -33.7072 -33.7072 -33.6847 -33.6811 -33.6811 -33.6598
   -33.6545 -33.6545 -33.6481 -33.6400 -33.6400 -33.6309 -33.6309 -33.6290
     8.6374   8.7273  11.5717  11.7674  11.7674  12.4874  12.4874  12.9117
    14.6420  14.8460  14.9472  14.9472  15.0614  15.0614  15.5396  15.5396
    15.7234  15.7255  15.7503  15.7503  15.8619  16.0745  16.0745  16.0840
    16.0840  16.0864  16.1718  16.2806  16.2806  16.3219  16.3219  16.4014
    16.4240  16.4631  16.4631  16.4882  16.4882  16.5172  16.5172  16.5360
    16.5360  16.7335  17.4365  17.4365  17.4387  17.5188  17.5188  17.5623
    18.9315  18.9694  19.0559  19.0559  19.1456  19.1650  19.1650  19.1999
    19.2356  19.2356  19.2971  19.2971  19.3392  19.3392  19.3647  19.4145
    19.4145  19.4613  19.4860  19.4860  19.4919  19.4930  19.4930  19.5793
    19.5793  19.6150  19.6838  19.8098  19.8098  20.2124  21.2684  21.6954
    21.6954  22.5730  22.5730

     the Fermi energy is    17.9087 ev

!    total energy              =   -4632.67251008 Ry
     estimated scf accuracy    <          1.1E-09 Ry
     smearing contrib. (-TS)   =       0.00063899 Ry
     internal energy E=F+TS    =   -4632.67314907 Ry

     The total energy is F=E-TS. E is the sum of the following terms:
     one-electron contribution =   -1705.52415804 Ry
     hartree contribution      =    1003.95349490 Ry
     xc contribution           =    -500.22423188 Ry
     ewald contribution        =   -2364.76588500 Ry
     one-center paw contrib.   =   -1066.11236904 Ry

     total magnetization       =    26.88 Bohr mag/cell
     absolute magnetization    =    29.07 Bohr mag/cell

     convergence has been achieved in  22 iterations

     negative rho (up, down):  0.000E+00 1.313E-03

     Forces acting on atoms (cartesian axes, Ry/au):

     atom    1 type  1   force =     0.00000000    0.00000000    0.00000000
     atom    2 type  2   force =     0.00000000    0.00000000    0.00000000
     atom    3 type  2   force =     0.00000000    0.00000000    0.00000000
     atom    4 type  2   force =     0.00000000    0.00000000    0.00000000
     atom    5 type  2   force =    -0.00000501   -0.00000501   -0.00000501
     atom    6 type  2   force =    -0.00000501    0.00000501    0.00000501
     atom    7 type  2   force =     0.00000501   -0.00000501    0.00000501
     atom    8 type  2   force =     0.00000501    0.00000501   -0.00000501
     atom    9 type  2   force =     0.00000501    0.00000501    0.00000501
     atom   10 type  2   force =     0.00000501   -0.00000501   -0.00000501
     atom   11 type  2   force =    -0.00000501    0.00000501   -0.00000501
     atom   12 type  2   force =    -0.00000501   -0.00000501    0.00000501
     atom   13 type  1   force =     0.00000000    0.00000000    0.00000000
     atom   14 type  2   force =     0.00000000    0.00000000    0.00000000
     atom   15 type  2   force =     0.00000000    0.00000000    0.00000000
     atom   16 type  2   force =     0.00000000    0.00000000    0.00000000

     Total force =     0.000025     Total SCF correction =     0.000070
     SCF correction compared to forces is large: reduce conv_thr to get better values


     Computing stress (Cartesian axis) and pressure


     negative rho (up, down):  0.000E+00 1.313E-03
          total   stress  (Ry/bohr**3)                   (kbar)     P=      -39.00
  -0.00026509   0.00000000   0.00000000          -39.00        0.00        0.00
   0.00000000  -0.00026509   0.00000000            0.00      -39.00        0.00
   0.00000000   0.00000000  -0.00026509            0.00        0.00      -39.00


     BFGS Geometry Optimization
     Energy error            =      0.0E+00 Ry
     Gradient error          =      5.0E-06 Ry/Bohr
     Cell gradient error     =      3.9E+01 kbar

     number of scf cycles    =   1
     number of bfgs steps    =   0

     enthalpy           new  =   -4632.6725100769 Ry

     new trust radius        =       0.0463033279 bohr
     new conv_thr            =       0.0000000100 Ry

     new unit-cell volume =   1196.27527 a.u.^3 (   177.26970 Ang^3 )
     density =      7.84980 g/cm^3

CELL_PARAMETERS (alat= 10.68640123)
   0.993372725   0.000000000   0.000000000
   0.000000000   0.993372725   0.000000000
   0.000000000   0.000000000   0.993372725

ATOMIC_POSITIONS (crystal)
Si            0.5000000000        0.5000000000        0.5000000000
Fe            0.5000000000        1.0000000000        1.0000000000
Fe            1.0000000000        0.5000000000        1.0000000000
Fe            1.0000000000        1.0000000000        0.5000000000
Fe            0.2499995313        0.2499995313        0.2499995313
Fe            0.2499995313        0.7500004687        0.7500004687
Fe            0.7500004687        0.2499995313        0.7500004687
Fe            0.7500004687        0.7500004687        0.2499995313
Fe            0.7500004687        0.7500004687        0.7500004687
Fe            0.7500004687        0.2499995313        0.2499995313
Fe            0.2499995313        0.7500004687        0.2499995313
Fe            0.2499995313        0.2499995313        0.7500004687
Si            0.0000000000        0.0000000000        0.0000000000
Fe            0.0000000000        0.5000000000        0.5000000000
Fe            0.5000000000        0.0000000000        0.5000000000
Fe            0.5000000000        0.5000000000        0.0000000000



     Writing config-only to output data dir ./file.save/
     NEW-OLD atomic charge density approx. for the potential

     Check: negative core charge=   -0.000075

     negative rho (up, down):  0.000E+00 1.306E-03
     extrapolated charge  227.32574, renormalised to  232.00000
     Generating pointlists ...

     total cpu time spent up to now is     2306.0 secs

     per-process dynamical memory:   102.1 Mb

     Self-consistent Calculation

     iteration #  1     ecut=    54.00 Ry     beta= 0.70
     Davidson diagonalization with overlap
     c_bands:  1 eigenvalues not converged
     c_bands:  1 eigenvalues not converged
     ethr =  1.00E-06,  avg # of iterations = 14.6

     negative rho (up, down):  0.000E+00 4.097E-04

     total cpu time spent up to now is     2774.9 secs

     total energy              =   -4626.03375617 Ry
     estimated scf accuracy    <       6.26736901 Ry

     total magnetization       =    29.13 Bohr mag/cell
     absolute magnetization    =    31.17 Bohr mag/cell

     iteration #  2     ecut=    54.00 Ry     beta= 0.70
     Davidson diagonalization with overlap
     ethr =  2.70E-03,  avg # of iterations =  5.4

     negative rho (up, down):  0.000E+00 9.579E-04

     total cpu time spent up to now is     2932.5 secs

     total energy              =   -4627.80106634 Ry
     estimated scf accuracy    <      61.97352978 Ry

     total magnetization       =    20.25 Bohr mag/cell
     absolute magnetization    =    20.87 Bohr mag/cell

     iteration #  3     ecut=    54.00 Ry     beta= 0.70
     Davidson diagonalization with overlap
     ethr =  2.70E-03,  avg # of iterations =  4.6

     negative rho (up, down):  0.000E+00 9.718E-04

     total cpu time spent up to now is     3052.4 secs

     total energy              =   -4632.38132458 Ry
     estimated scf accuracy    <      20.22675948 Ry

     total magnetization       =    22.07 Bohr mag/cell
     absolute magnetization    =    23.14 Bohr mag/cell

     iteration #  4     ecut=    54.00 Ry     beta= 0.70
     Davidson diagonalization with overlap
     ethr =  2.70E-03,  avg # of iterations =  2.0

     negative rho (up, down):  0.000E+00 1.077E-03

     total cpu time spent up to now is     3133.2 secs

     total energy              =   -4632.92241159 Ry
     estimated scf accuracy    <       3.83103568 Ry

     total magnetization       =    25.68 Bohr mag/cell
     absolute magnetization    =    27.26 Bohr mag/cell

     iteration #  5     ecut=    54.00 Ry     beta= 0.70
     Davidson diagonalization with overlap
     ethr =  1.65E-03,  avg # of iterations =  1.1

     negative rho (up, down):  0.000E+00 1.131E-03

     total cpu time spent up to now is     3200.1 secs

     total energy              =   -4632.77182499 Ry
     estimated scf accuracy    <       2.02478293 Ry

     total magnetization       =    25.88 Bohr mag/cell
     absolute magnetization    =    27.55 Bohr mag/cell

     iteration #  6     ecut=    54.00 Ry     beta= 0.70
     Davidson diagonalization with overlap
     ethr =  8.73E-04,  avg # of iterations =  1.3

     negative rho (up, down):  0.000E+00 1.150E-03

     total cpu time spent up to now is     3267.9 secs

     total energy              =   -4632.75674856 Ry
     estimated scf accuracy    <       0.99835679 Ry

     total magnetization       =    25.99 Bohr mag/cell
     absolute magnetization    =    27.88 Bohr mag/cell

     iteration #  7     ecut=    54.00 Ry     beta= 0.70
     Davidson diagonalization with overlap
     ethr =  4.30E-04,  avg # of iterations =  1.2

     negative rho (up, down):  0.000E+00 1.154E-03

     total cpu time spent up to now is     3337.9 secs

     total energy              =   -4632.75103143 Ry
     estimated scf accuracy    <       0.66745780 Ry

     total magnetization       =    26.04 Bohr mag/cell
     absolute magnetization    =    27.95 Bohr mag/cell

     iteration #  8     ecut=    54.00 Ry     beta= 0.70
     Davidson diagonalization with overlap
     ethr =  2.88E-04,  avg # of iterations =  1.0

     negative rho (up, down):  0.000E+00 1.149E-03

     total cpu time spent up to now is     3405.5 secs

     total energy              =   -4632.72622746 Ry
     estimated scf accuracy    <       0.53440172 Ry

     total magnetization       =    26.08 Bohr mag/cell
     absolute magnetization    =    28.02 Bohr mag/cell

     iteration #  9     ecut=    54.00 Ry     beta= 0.70
     Davidson diagonalization with overlap
     ethr =  2.30E-04,  avg # of iterations =  1.1

     negative rho (up, down):  0.000E+00 1.150E-03

     total cpu time spent up to now is     3474.4 secs

     total energy              =   -4632.70296666 Ry
     estimated scf accuracy    <       0.36770979 Ry

     total magnetization       =    26.13 Bohr mag/cell
     absolute magnetization    =    28.09 Bohr mag/cell

     iteration # 10     ecut=    54.00 Ry     beta= 0.70
     Davidson diagonalization with overlap
     ethr =  1.58E-04,  avg # of iterations =  1.0

     negative rho (up, down):  0.000E+00 1.137E-03

     total cpu time spent up to now is     3542.9 secs

     total energy              =   -4632.63712367 Ry
     estimated scf accuracy    <       0.22474032 Ry

     total magnetization       =    26.16 Bohr mag/cell
     absolute magnetization    =    28.16 Bohr mag/cell

     iteration # 11     ecut=    54.00 Ry     beta= 0.70
     Davidson diagonalization with overlap
     ethr =  9.69E-05,  avg # of iterations =  2.0

     negative rho (up, down):  0.000E+00 1.144E-03

     total cpu time spent up to now is     3632.2 secs

     total energy              =   -4632.66947757 Ry
     estimated scf accuracy    <       0.00367795 Ry

     total magnetization       =    26.33 Bohr mag/cell
     absolute magnetization    =    28.43 Bohr mag/cell

     iteration # 12     ecut=    54.00 Ry     beta= 0.70
     Davidson diagonalization with overlap
     ethr =  1.59E-06,  avg # of iterations =  7.5

     negative rho (up, down):  0.000E+00 1.150E-03

     total cpu time spent up to now is     3840.9 secs

     total energy              =   -4632.67525227 Ry
     estimated scf accuracy    <       0.00008480 Ry

     total magnetization       =    26.35 Bohr mag/cell
     absolute magnetization    =    28.44 Bohr mag/cell

     iteration # 13     ecut=    54.00 Ry     beta= 0.70
     Davidson diagonalization with overlap
     ethr =  3.66E-08,  avg # of iterations =  5.8

     negative rho (up, down):  0.000E+00 1.152E-03

     total cpu time spent up to now is     4006.4 secs

     total energy              =   -4632.67536526 Ry
     estimated scf accuracy    <       0.00016544 Ry

     total magnetization       =    26.35 Bohr mag/cell
     absolute magnetization    =    28.44 Bohr mag/cell

     iteration # 14     ecut=    54.00 Ry     beta= 0.70
     Davidson diagonalization with overlap
     ethr =  3.66E-08,  avg # of iterations =  2.0

     negative rho (up, down):  0.000E+00 1.155E-03

     total cpu time spent up to now is     4089.1 secs

     total energy              =   -4632.67536831 Ry
     estimated scf accuracy    <       0.00015895 Ry

     total magnetization       =    26.36 Bohr mag/cell
     absolute magnetization    =    28.45 Bohr mag/cell

     iteration # 15     ecut=    54.00 Ry     beta= 0.70
     Davidson diagonalization with overlap
     ethr =  3.66E-08,  avg # of iterations =  1.0

     negative rho (up, down):  0.000E+00 1.156E-03

     total cpu time spent up to now is     4157.8 secs

     total energy              =   -4632.67536368 Ry
     estimated scf accuracy    <       0.00014709 Ry

     total magnetization       =    26.37 Bohr mag/cell
     absolute magnetization    =    28.45 Bohr mag/cell

     iteration # 16     ecut=    54.00 Ry     beta= 0.70
     Davidson diagonalization with overlap
     ethr =  3.66E-08,  avg # of iterations =  1.0

     negative rho (up, down):  0.000E+00 1.157E-03

     total cpu time spent up to now is     4225.3 secs

     total energy              =   -4632.67535781 Ry
     estimated scf accuracy    <       0.00011923 Ry

     total magnetization       =    26.37 Bohr mag/cell
     absolute magnetization    =    28.45 Bohr mag/cell

     iteration # 17     ecut=    54.00 Ry     beta= 0.70
     Davidson diagonalization with overlap
     ethr =  3.66E-08,  avg # of iterations =  1.0

     negative rho (up, down):  0.000E+00 1.158E-03

     total cpu time spent up to now is     4291.8 secs

     total energy              =   -4632.67534154 Ry
     estimated scf accuracy    <       0.00009379 Ry

     total magnetization       =    26.37 Bohr mag/cell
     absolute magnetization    =    28.45 Bohr mag/cell

     iteration # 18     ecut=    54.00 Ry     beta= 0.70
     Davidson diagonalization with overlap
     ethr =  3.66E-08,  avg # of iterations =  1.0

     negative rho (up, down):  0.000E+00 1.158E-03

     total cpu time spent up to now is     4361.5 secs

     total energy              =   -4632.67534556 Ry
     estimated scf accuracy    <       0.00004417 Ry

     total magnetization       =    26.36 Bohr mag/cell
     absolute magnetization    =    28.45 Bohr mag/cell

     iteration # 19     ecut=    54.00 Ry     beta= 0.70
     Davidson diagonalization with overlap
     ethr =  1.90E-08,  avg # of iterations =  1.0

     negative rho (up, down):  0.000E+00 1.157E-03

     total cpu time spent up to now is     4432.0 secs

     total energy              =   -4632.67534213 Ry
     estimated scf accuracy    <       0.00004395 Ry

     total magnetization       =    26.36 Bohr mag/cell
     absolute magnetization    =    28.45 Bohr mag/cell

     iteration # 20     ecut=    54.00 Ry     beta= 0.70
     Davidson diagonalization with overlap
     ethr =  1.89E-08,  avg # of iterations =  1.0

     negative rho (up, down):  0.000E+00 1.154E-03

     total cpu time spent up to now is     4500.1 secs

     total energy              =   -4632.67533141 Ry
     estimated scf accuracy    <       0.00002830 Ry

     total magnetization       =    26.36 Bohr mag/cell
     absolute magnetization    =    28.45 Bohr mag/cell

     iteration # 21     ecut=    54.00 Ry     beta= 0.70
     Davidson diagonalization with overlap
     ethr =  1.22E-08,  avg # of iterations =  2.0

     negative rho (up, down):  0.000E+00 1.153E-03

     total cpu time spent up to now is     4591.5 secs

     total energy              =   -4632.67533651 Ry
     estimated scf accuracy    <       0.00000015 Ry

     total magnetization       =    26.35 Bohr mag/cell
     absolute magnetization    =    28.44 Bohr mag/cell

     iteration # 22     ecut=    54.00 Ry     beta= 0.70
     Davidson diagonalization with overlap
     ethr =  6.27E-11,  avg # of iterations =  6.9

     negative rho (up, down):  0.000E+00 1.153E-03

     total cpu time spent up to now is     4784.5 secs

     total energy              =   -4632.67533692 Ry
     estimated scf accuracy    <       0.00000027 Ry

     total magnetization       =    26.35 Bohr mag/cell
     absolute magnetization    =    28.44 Bohr mag/cell

     iteration # 23     ecut=    54.00 Ry     beta= 0.70
     Davidson diagonalization with overlap
     ethr =  6.27E-11,  avg # of iterations =  2.0

     negative rho (up, down):  0.000E+00 1.153E-03

     total cpu time spent up to now is     4875.9 secs

     total energy              =   -4632.67533692 Ry
     estimated scf accuracy    <       0.00000003 Ry

     total magnetization       =    26.35 Bohr mag/cell
     absolute magnetization    =    28.44 Bohr mag/cell

     iteration # 24     ecut=    54.00 Ry     beta= 0.70
     Davidson diagonalization with overlap
     ethr =  1.42E-11,  avg # of iterations =  3.6

     negative rho (up, down):  0.000E+00 1.153E-03

     Magnetic moment per site  (integrated on atomic sphere of radius R)
     atom   1 (R=0.179)  charge=  2.0751  magn= -0.1066
     atom   2 (R=0.179)  charge= 14.4027  magn=  2.2979
     atom   3 (R=0.179)  charge= 14.4027  magn=  2.2979
     atom   4 (R=0.179)  charge= 14.4027  magn=  2.2979
     atom   5 (R=0.179)  charge= 14.4609  magn=  1.6797
     atom   6 (R=0.179)  charge= 14.4609  magn=  1.6797
     atom   7 (R=0.179)  charge= 14.4609  magn=  1.6797
     atom   8 (R=0.179)  charge= 14.4609  magn=  1.6797
     atom   9 (R=0.179)  charge= 14.4609  magn=  1.6797
     atom  10 (R=0.179)  charge= 14.4609  magn=  1.6797
     atom  11 (R=0.179)  charge= 14.4609  magn=  1.6797
     atom  12 (R=0.179)  charge= 14.4609  magn=  1.6797
     atom  13 (R=0.179)  charge=  2.0751  magn= -0.1066
     atom  14 (R=0.179)  charge= 14.4027  magn=  2.2979
     atom  15 (R=0.179)  charge= 14.4027  magn=  2.2979
     atom  16 (R=0.179)  charge= 14.4027  magn=  2.2979

     total cpu time spent up to now is     4972.4 secs

     End of self-consistent calculation

 ------ SPIN UP ------------


          k = 0.0000 0.0000 0.0000 (  8217 PWs)   bands (ev):

   -69.9959 -69.9859 -69.9859 -69.9799 -69.9799 -69.9777 -69.3724 -69.3724
   -69.3724 -69.3711 -69.3663 -69.3663 -69.3663 -69.3611 -36.1767 -36.1767
   -36.1767 -36.1316 -36.1316 -36.1316 -36.0900 -36.0900 -36.0900 -36.0063
   -36.0063 -36.0063 -35.9576 -35.9576 -35.9576 -35.9368 -35.9368 -35.9368
   -35.4971 -35.4971 -35.4709 -35.4709 -35.4709 -35.4268 -35.4184 -35.4184
   -35.4184 -35.4119 -35.4119 -35.4107 -35.4107 -35.4107 -35.4029 -35.4029
   -35.4029 -35.3609 -35.3609 -35.3609 -35.3568 -35.3568 -35.3568 -35.3372
     7.5847   9.6239  12.0268  12.3802  12.3802  12.3802  13.2451  13.2451
    13.3905  13.3905  13.3905  13.5931  13.5931  13.7540  13.7540  14.8032
    14.8032  14.8032  14.8128  14.8128  14.8128  15.0443  15.0912  15.0912
    15.0912  15.3970  15.3970  15.3970  15.4157  15.4157  15.4157  15.6962
    15.6962  15.8267  15.8267  15.8267  16.1922  16.1922  16.1922  16.4768
    16.4768  16.4768  16.6505  16.6505  16.6505  16.6739  16.6739  16.6739
    16.7443  16.7443  16.7443  16.8209  16.9908  17.1263  17.1263  17.2289
    17.2630  17.2630  17.4380  17.4936  17.4936  17.7276  17.7276  17.7276
    17.7313  17.7313  17.7313  17.7746  17.7746  17.8257  17.8257  18.5478
    18.5478  18.5478  18.6823  18.6823  18.6823  18.6891  18.6891  18.6891
    18.8453  18.8453  18.8453

          k = 0.0000 0.0000 0.2013 (  8173 PWs)   bands (ev):

   -69.9949 -69.9867 -69.9852 -69.9806 -69.9798 -69.9773 -69.3723 -69.3717
   -69.3717 -69.3712 -69.3669 -69.3669 -69.3657 -69.3607 -36.1728 -36.1724
   -36.1724 -36.1363 -36.1359 -36.1359 -36.0826 -36.0826 -36.0772 -36.0150
   -36.0150 -36.0018 -35.9624 -35.9558 -35.9558 -35.9540 -35.9390 -35.9390
   -35.4869 -35.4855 -35.4647 -35.4638 -35.4638 -35.4220 -35.4178 -35.4168
   -35.4166 -35.4163 -35.4163 -35.4130 -35.4130 -35.4125 -35.4100 -35.4058
   -35.4058 -35.3692 -35.3618 -35.3618 -35.3583 -35.3583 -35.3554 -35.3398
     7.7567   9.4416  12.0869  12.1224  12.5121  12.5121  13.3186  13.3518
    13.3648  13.3648  13.5358  13.6133  13.6797  13.6966  13.8424  14.5748
    14.7553  14.7553  14.7919  14.8343  14.8343  14.8925  14.9075  15.1992
    15.1992  15.2227  15.2356  15.2356  15.3636  15.3636  15.4836  15.6903
    15.6903  15.7109  15.7760  15.9600  16.0215  16.1577  16.1577  16.2471
    16.2471  16.5006  16.5567  16.7081  16.7081  16.7147  16.7181  16.7589
    16.7589  16.8342  16.8658  17.0727  17.1076  17.2129  17.2452  17.2452
    17.2563  17.2860  17.3533  17.3533  17.3815  17.6501  17.7091  17.7127
    17.7283  17.7351  17.7479  17.7677  17.7677  17.7803  17.9313  18.3466
    18.3466  18.5668  18.5668  18.5878  18.5878  18.6122  18.7252  18.7601
    19.1815  19.4907  19.4907

          k = 0.0000 0.0000 0.4027 (  8165 PWs)   bands (ev):

   -69.9920 -69.9889 -69.9837 -69.9820 -69.9792 -69.9784 -69.3719 -69.3714
   -69.3702 -69.3702 -69.3684 -69.3684 -69.3641 -69.3623 -36.1621 -36.1611
   -36.1611 -36.1482 -36.1471 -36.1471 -36.0626 -36.0626 -36.0424 -36.0369
   -36.0369 -35.9958 -35.9899 -35.9748 -35.9510 -35.9510 -35.9446 -35.9446
   -35.4616 -35.4586 -35.4490 -35.4463 -35.4463 -35.4345 -35.4306 -35.4302
   -35.4264 -35.4264 -35.4162 -35.4142 -35.4116 -35.4116 -35.4084 -35.4081
   -35.4081 -35.3886 -35.3628 -35.3628 -35.3614 -35.3614 -35.3516 -35.3458
     8.2380   8.8960  12.0103  12.1229  12.8504  12.8504  13.2040  13.2040
    13.4430  13.5148  13.5848  13.6574  13.7146  13.9307  14.0918  14.1004
    14.4400  14.4519  14.6800  14.6800  14.7556  14.7556  15.0448  15.0448
    15.1488  15.2047  15.2047  15.2157  15.5336  15.6354  15.6354  15.6645
    15.6645  15.6810  15.7299  15.7719  15.8473  15.8516  15.8516  16.0943
    16.3123  16.3123  16.4724  16.4724  16.4873  16.7190  16.8093  16.8093
    16.8324  16.8732  16.8984  17.0418  17.1492  17.1608  17.1775  17.1775
    17.2692  17.3351  17.4010  17.4768  17.5712  17.5712  17.7150  17.7255
    17.7449  17.7565  17.7672  17.7672  18.0961  18.1430  18.2201  18.2201
    18.2336  18.4089  18.5144  18.5382  18.5382  18.5734  18.5979  18.5979
    20.3621  20.3621  20.7342

          k = 0.0000 0.2013 0.2013 (  8216 PWs)   bands (ev):

   -69.9938 -69.9869 -69.9855 -69.9809 -69.9801 -69.9781 -69.3721 -69.3717
   -69.3712 -69.3711 -69.3674 -69.3664 -69.3664 -69.3615 -36.1714 -36.1688
   -36.1677 -36.1418 -36.1392 -36.1383 -36.0763 -36.0749 -36.0656 -36.0217
   -36.0143 -36.0050 -35.9656 -35.9586 -35.9568 -35.9544 -35.9492 -35.9408
   -35.4795 -35.4776 -35.4655 -35.4590 -35.4519 -35.4229 -35.4224 -35.4196
   -35.4188 -35.4174 -35.4169 -35.4167 -35.4134 -35.4130 -35.4109 -35.4063
   -35.4036 -35.3717 -35.3653 -35.3624 -35.3600 -35.3574 -35.3567 -35.3423
     7.9217   9.3476  11.8493  12.0968  12.5931  12.6387  13.2057  13.4085
    13.4355  13.4382  13.6007  13.6122  13.7690  13.8041  13.8930  14.4790
    14.6763  14.6988  14.7263  14.8716  14.8807  14.9415  14.9878  14.9958
    15.0298  15.0965  15.1107  15.2269  15.3386  15.4196  15.4540  15.6456
    15.7528  15.7734  15.8169  15.8344  15.8545  15.8901  16.2686  16.3899
    16.4278  16.4602  16.5082  16.6205  16.6644  16.6976  16.7522  16.7781
    16.8297  16.8832  16.9046  16.9051  16.9617  17.0745  17.1410  17.1472
    17.2319  17.2643  17.3566  17.3821  17.5719  17.6046  17.6180  17.6208
    17.6716  17.6736  17.7520  17.8539  17.8872  17.8881  17.9302  17.9965
    18.1941  18.3175  18.6542  18.7223  18.7597  18.7822  18.9831  19.0768
    19.5330  19.6442  20.0108

          k = 0.0000 0.2013 0.4027 (  8200 PWs)   bands (ev):

   -69.9914 -69.9886 -69.9842 -69.9823 -69.9796 -69.9788 -69.3718 -69.3715
   -69.3703 -69.3697 -69.3690 -69.3677 -69.3647 -69.3629 -36.1641 -36.1595
   -36.1581 -36.1528 -36.1482 -36.1469 -36.0598 -36.0554 -36.0390 -36.0338
   -36.0316 -35.9943 -35.9921 -35.9781 -35.9553 -35.9530 -35.9505 -35.9454
   -35.4614 -35.4574 -35.4551 -35.4464 -35.4398 -35.4383 -35.4347 -35.4338
   -35.4308 -35.4205 -35.4199 -35.4178 -35.4086 -35.4077 -35.4063 -35.4036
   -35.4027 -35.3852 -35.3662 -35.3637 -35.3628 -35.3606 -35.3533 -35.3479
     8.3753   8.9558  11.6921  11.9343  12.8659  12.9590  13.1025  13.2839
    13.4444  13.6371  13.6423  13.7422  13.8463  13.9823  14.1348  14.1691
    14.4796  14.5063  14.6494  14.7411  14.7767  14.7944  14.9539  14.9784
    15.0384  15.1629  15.1991  15.3070  15.3280  15.5014  15.5091  15.5847
    15.6178  15.6733  15.7400  15.7662  15.8018  15.8227  15.8928  16.1608
    16.1677  16.2257  16.4645  16.6612  16.6759  16.6962  16.7041  16.7383
    16.8102  16.8992  16.9594  16.9925  17.0343  17.1232  17.1323  17.2561
    17.2933  17.2977  17.3413  17.4219  17.4382  17.4763  17.5201  17.5791
    17.5985  17.6406  17.7128  17.7723  17.8071  17.9695  18.0805  18.0832
    18.1779  18.3641  18.4580  18.6266  18.8875  19.0922  19.3833  19.5089
    20.2449  20.4485  21.0067

          k = 0.0000 0.4027 0.4027 (  8162 PWs)   bands (ev):

   -69.9894 -69.9880 -69.9843 -69.9833 -69.9800 -69.9794 -69.3713 -69.3712
   -69.3701 -69.3695 -69.3681 -69.3663 -69.3663 -69.3642 -36.1637 -36.1594
   -36.1556 -36.1541 -36.1512 -36.1498 -36.0528 -36.0449 -36.0387 -36.0254
   -36.0116 -35.9994 -35.9899 -35.9884 -35.9688 -35.9646 -35.9492 -35.9473
   -35.4592 -35.4538 -35.4519 -35.4512 -35.4466 -35.4439 -35.4433 -35.4382
   -35.4260 -35.4255 -35.4194 -35.4116 -35.4071 -35.4064 -35.4001 -35.3985
   -35.3912 -35.3814 -35.3733 -35.3695 -35.3620 -35.3599 -35.3555 -35.3524
     8.7134   8.9791  11.2787  11.4504  13.0959  13.2011  13.3303  13.3470
    13.3545  13.7102  13.7169  13.7385  14.0379  14.2175  14.2788  14.3458
    14.4562  14.5181  14.6521  14.7018  14.7063  14.8434  14.8637  14.8856
    14.9255  14.9471  15.2223  15.2363  15.2553  15.3045  15.3902  15.4466
    15.5666  15.6298  15.6365  15.6645  15.7324  15.7415  15.7693  15.8351
    16.1306  16.3110  16.5999  16.6488  16.6912  16.7822  16.8067  16.8150
    16.8217  16.9609  16.9737  17.0238  17.0388  17.1039  17.1198  17.1956
    17.1966  17.2601  17.2662  17.2720  17.2793  17.2898  17.3560  17.3591
    17.4336  17.4660  17.4800  17.6174  17.7990  17.8279  18.0779  18.0918
    18.4407  18.6258  18.7218  18.7780  19.3876  19.4359  19.6987  20.0045
    20.0251  20.6022  21.1842

          k = 0.2013 0.2013 0.2013 (  8172 PWs)   bands (ev):

   -69.9928 -69.9861 -69.9861 -69.9806 -69.9806 -69.9783 -69.3717 -69.3711
   -69.3711 -69.3710 -69.3668 -69.3668 -69.3668 -69.3619 -36.1684 -36.1684
   -36.1631 -36.1443 -36.1443 -36.1397 -36.0726 -36.0605 -36.0605 -36.0213
   -36.0129 -36.0129 -35.9643 -35.9643 -35.9573 -35.9573 -35.9526 -35.9485
   -35.4725 -35.4725 -35.4587 -35.4587 -35.4460 -35.4295 -35.4295 -35.4266
   -35.4199 -35.4142 -35.4142 -35.4115 -35.4115 -35.4112 -35.4095 -35.4095
   -35.4071 -35.3720 -35.3662 -35.3662 -35.3592 -35.3587 -35.3587 -35.3450
     8.0797   9.2988  11.9966  11.9966  12.0911  13.0000  13.2694  13.2694
    13.3299  13.5586  13.5586  13.8823  13.8823  13.8828  13.8828  14.4507
    14.5944  14.6847  14.6847  14.7721  14.8761  14.9550  14.9748  14.9748
    15.0507  15.0507  15.2145  15.2145  15.3307  15.3307  15.4457  15.6238
    15.6238  15.7540  15.7540  15.7852  15.7852  15.8589  16.0932  16.1821
    16.5152  16.5152  16.5639  16.5639  16.5681  16.6779  16.6779  16.7057
    16.7057  16.8401  16.9118  17.0177  17.1154  17.1814  17.1814  17.1980
    17.2593  17.2593  17.3356  17.3356  17.4386  17.4649  17.5566  17.5566
    17.5875  17.6353  17.6353  17.6913  17.6913  18.0371  18.0371  18.3139
    18.3139  18.3676  18.3918  18.7533  18.9496  18.9496  19.2393  19.2393
    19.7496  19.7496  20.8937

          k = 0.2013 0.2013 0.4027 (  8176 PWs)   bands (ev):

   -69.9904 -69.9881 -69.9845 -69.9821 -69.9801 -69.9793 -69.3716 -69.3712
   -69.3700 -69.3698 -69.3680 -69.3679 -69.3653 -69.3634 -36.1631 -36.1606
   -36.1549 -36.1539 -36.1514 -36.1461 -36.0558 -36.0474 -36.0327 -36.0320
   -36.0291 -35.9985 -35.9898 -35.9799 -35.9606 -35.9549 -35.9546 -35.9527
   -35.4587 -35.4560 -35.4536 -35.4429 -35.4420 -35.4409 -35.4397 -35.4335
   -35.4234 -35.4215 -35.4205 -35.4180 -35.4086 -35.4071 -35.4071 -35.4053
   -35.3981 -35.3826 -35.3667 -35.3663 -35.3634 -35.3629 -35.3556 -35.3505
     8.5057   9.0146  11.6910  11.8914  12.3888  12.8749  13.2479  13.3635
    13.3948  13.7191  13.7405  13.7993  13.9508  14.0873  14.1694  14.2116
    14.5142  14.5168  14.6754  14.6857  14.6900  14.9419  15.0308  15.0447
    15.0601  15.1474  15.1680  15.2105  15.3155  15.3753  15.4576  15.5861
    15.5877  15.6106  15.6116  15.6209  15.7063  15.7116  15.9133  15.9643
    15.9982  16.0324  16.5412  16.6370  16.6873  16.7058  16.7894  16.7963
    16.8237  16.9158  16.9534  16.9876  17.0214  17.1335  17.1682  17.2017
    17.2391  17.2727  17.3008  17.3264  17.3925  17.4229  17.4863  17.5257
    17.5300  17.5725  17.7032  17.8403  17.9121  17.9132  18.2080  18.2095
    18.2709  18.2795  18.4023  18.4946  19.0931  19.3684  19.5132  19.9498
    20.1309  20.2924  21.2928

          k = 0.2013 0.4027 0.4027 (  8159 PWs)   bands (ev):

   -69.9887 -69.9872 -69.9845 -69.9831 -69.9806 -69.9802 -69.3710 -69.3709
   -69.3698 -69.3691 -69.3683 -69.3666 -69.3665 -69.3648 -36.1619 -36.1584
   -36.1577 -36.1541 -36.1508 -36.1475 -36.0455 -36.0366 -36.0323 -36.0220
   -36.0117 -36.0036 -35.9893 -35.9889 -35.9732 -35.9703 -35.9575 -35.9566
   -35.4544 -35.4493 -35.4482 -35.4481 -35.4454 -35.4432 -35.4400 -35.4316
   -35.4234 -35.4233 -35.4224 -35.4149 -35.4104 -35.4083 -35.4039 -35.4031
   -35.3887 -35.3792 -35.3747 -35.3697 -35.3653 -35.3618 -35.3598 -35.3561
     8.8192   9.0489  11.4503  11.5746  12.5018  12.8524  13.1247  13.2835
    13.6136  13.8374  13.8527  13.8896  14.0574  14.2901  14.3250  14.3590
    14.4450  14.5681  14.6422  14.6772  14.6823  14.8898  14.9147  14.9723
    15.1177  15.1408  15.1750  15.2222  15.2346  15.2556  15.3493  15.3663
    15.4890  15.5003  15.5136  15.5356  15.5751  15.5782  15.6861  15.7046
    15.9123  15.9236  16.5039  16.6199  16.6226  16.6326  16.7044  16.7662
    16.9585  16.9831  16.9988  17.0261  17.0862  17.1797  17.2015  17.2434
    17.2777  17.2851  17.2894  17.3575  17.3752  17.3948  17.4243  17.4310
    17.4627  17.5297  17.5301  17.7359  17.8360  17.9671  18.0664  18.1063
    18.3767  18.4253  18.4861  18.7181  19.1366  19.5375  19.8049  20.2336
    20.2658  20.9439  22.0645

          k = 0.4027 0.4027 0.4027 (  8186 PWs)   bands (ev):

   -69.9870 -69.9853 -69.9853 -69.9828 -69.9828 -69.9817 -69.3703 -69.3700
   -69.3688 -69.3688 -69.3681 -69.3677 -69.3677 -69.3661 -36.1584 -36.1584
   -36.1571 -36.1571 -36.1475 -36.1463 -36.0297 -36.0161 -36.0146 -36.0146
   -36.0125 -36.0125 -35.9888 -35.9888 -35.9836 -35.9836 -35.9821 -35.9716
   -35.4437 -35.4437 -35.4427 -35.4402 -35.4402 -35.4340 -35.4340 -35.4296
   -35.4237 -35.4237 -35.4207 -35.4157 -35.4150 -35.4150 -35.4116 -35.4116
   -35.3836 -35.3756 -35.3756 -35.3732 -35.3695 -35.3695 -35.3656 -35.3626
     9.0470   9.1475  11.7620  11.9251  11.9251  12.5666  12.5666  12.9341
    13.8839  14.0868  14.0868  14.1194  14.1194  14.1991  14.4413  14.4687
    14.4687  14.6921  14.6921  14.7243  14.8465  14.9522  14.9661  14.9661
    15.0282  15.0282  15.0583  15.1869  15.1869  15.2231  15.2410  15.2410
    15.3060  15.3060  15.3427  15.3427  15.3961  15.6134  15.6261  15.6261
    15.6397  15.6397  16.3824  16.4080  16.4080  16.4844  16.4844  16.5400
    17.0672  17.0850  17.0850  17.1399  17.1929  17.1929  17.2596  17.2646
    17.2646  17.3627  17.3627  17.3810  17.5080  17.5080  17.5578  17.5876
    17.6367  17.6367  17.9217  17.9217  18.0164  18.0164  18.0718  18.0798
    18.1252  18.1252  18.4217  18.5196  18.5196  19.0198  20.6548  21.1855
    21.1855  22.1582  22.1582

 ------ SPIN DOWN ----------


          k = 0.0000 0.0000 0.0000 (  8217 PWs)   bands (ev):

   -67.4180 -67.3765 -67.3765 -67.3765 -67.3699 -67.3699 -67.3699 -67.3639
   -67.2671 -67.2671 -67.2605 -67.2605 -67.2577 -67.2353 -33.7119 -33.7119
   -33.7119 -33.6759 -33.6759 -33.6759 -33.5530 -33.5353 -33.5353 -33.5353
   -33.5290 -33.5290 -33.5215 -33.5215 -33.5215 -33.4539 -33.4534 -33.4534
   -33.4534 -33.4415 -33.4415 -33.4415 -33.4341 -33.4341 -33.4245 -33.4245
   -33.4245 -33.3928 -33.3928 -33.3928 -33.3142 -33.3142 -33.3142 -33.2954
   -33.2954 -33.2954 -33.2171 -33.2171 -33.2171 -33.1983 -33.1983 -33.1983
     7.5881   9.5963  12.6139  12.6503  12.6503  12.6503  14.1263  14.1263
    14.4375  14.4375  14.5239  14.5239  14.5239  15.2263  15.2263  15.6779
    15.6779  15.6779  15.7661  15.7661  15.7661  16.2597  16.2597  16.2597
    16.4865  16.4865  16.4865  16.8622  16.8622  16.8622  17.1472  17.1472
    17.1472  17.3622  17.7455  17.7455  17.7455  17.9758  17.9758  17.9758
    18.0174  18.0174  18.0174  18.1826  18.1826  18.2124  18.2124  18.2124
    18.6810  18.6810  18.6810  18.7575  18.7575  18.7575  18.9370  18.9370
    18.9405  19.5412  19.7357  19.7357  19.7357  19.7840  19.7840  19.8017
    19.9485  19.9485  19.9727  19.9727  19.9727  20.0247  20.0247  20.1871
    20.4989  20.4989  20.4989  20.5129  20.5129  20.5536  20.5536  20.5536
    20.7225  20.7225  20.7225

          k = 0.0000 0.0000 0.2013 (  8173 PWs)   bands (ev):

   -67.4147 -67.3815 -67.3758 -67.3758 -67.3706 -67.3706 -67.3693 -67.3639
   -67.2664 -67.2636 -67.2612 -67.2603 -67.2570 -67.2375 -33.6981 -33.6979
   -33.6979 -33.6676 -33.6640 -33.6640 -33.5651 -33.5536 -33.5504 -33.5504
   -33.5450 -33.5377 -33.5297 -33.5297 -33.5141 -33.5047 -33.5047 -33.4680
   -33.4680 -33.4576 -33.4525 -33.4408 -33.4389 -33.4349 -33.3964 -33.3831
   -33.3831 -33.3762 -33.3469 -33.3469 -33.3038 -33.3031 -33.3031 -33.3004
   -33.3004 -33.2960 -33.2314 -33.2248 -33.2248 -33.2087 -33.2087 -33.2057
[...]
   -36.0615 -36.0615 -36.0381 -36.0381 -36.0329 -36.0329 -36.0314 -36.0210
   -35.4957 -35.4957 -35.4947 -35.4923 -35.4923 -35.4861 -35.4861 -35.4819
   -35.4759 -35.4759 -35.4729 -35.4680 -35.4674 -35.4674 -35.4640 -35.4640
   -35.4375 -35.4296 -35.4296 -35.4273 -35.4236 -35.4236 -35.4198 -35.4168
     9.0057   9.1060  11.7205  11.8840  11.8840  12.5252  12.5252  12.8919
    13.8420  14.0446  14.0446  14.0776  14.0776  14.1560  14.3994  14.4262
    14.4262  14.6490  14.6490  14.6803  14.8020  14.9082  14.9217  14.9217
    14.9836  14.9836  15.0138  15.1421  15.1421  15.1777  15.1958  15.1958
    15.2605  15.2605  15.2970  15.2970  15.3499  15.5669  15.5793  15.5793
    15.5929  15.5929  16.3321  16.3577  16.3577  16.4337  16.4337  16.4888
    17.0138  17.0317  17.0317  17.0877  17.1394  17.1394  17.2056  17.2117
    17.2117  17.3096  17.3096  17.3278  17.4544  17.4544  17.5040  17.5335
    17.5828  17.5828  17.8669  17.8669  17.9611  17.9611  18.0156  18.0239
    18.0694  18.0694  18.3639  18.4629  18.4629  18.9609  20.5936  21.1248
    21.1248  22.0956  22.0956

 ------ SPIN DOWN ----------


          k = 0.0000 0.0000 0.0000 (  8121 PWs)   bands (ev):

   -67.4635 -67.4226 -67.4226 -67.4226 -67.4161 -67.4161 -67.4161 -67.4088
   -67.3130 -67.3130 -67.3065 -67.3065 -67.3027 -67.2817 -33.7552 -33.7552
   -33.7552 -33.7204 -33.7204 -33.7204 -33.5994 -33.5811 -33.5811 -33.5811
   -33.5741 -33.5741 -33.5675 -33.5675 -33.5675 -33.5012 -33.5000 -33.5000
   -33.5000 -33.4875 -33.4875 -33.4875 -33.4801 -33.4801 -33.4710 -33.4710
   -33.4710 -33.4379 -33.4379 -33.4379 -33.3599 -33.3599 -33.3599 -33.3425
   -33.3425 -33.3425 -33.2642 -33.2642 -33.2642 -33.2453 -33.2453 -33.2453
     7.5501   9.5522  12.5740  12.6088  12.6088  12.6088  14.0817  14.0817
    14.4000  14.4000  14.4859  14.4859  14.4859  15.1894  15.1894  15.6387
    15.6387  15.6387  15.7172  15.7172  15.7172  16.2200  16.2200  16.2200
    16.4474  16.4474  16.4474  16.8210  16.8210  16.8210  17.1054  17.1054
    17.1054  17.3211  17.7009  17.7009  17.7009  17.9309  17.9309  17.9309
    17.9721  17.9721  17.9721  18.1382  18.1382  18.1671  18.1671  18.1671
    18.6347  18.6347  18.6347  18.7045  18.7045  18.7045  18.8894  18.8894
    18.8928  19.4915  19.6854  19.6854  19.6854  19.7349  19.7349  19.7497
    19.8983  19.8983  19.9218  19.9218  19.9218  19.9738  19.9738  20.1371
    20.4453  20.4453  20.4453  20.4610  20.4610  20.5015  20.5015  20.5015
    20.6692  20.6692  20.6692

          k = 0.0000 0.0000 0.2012 (  8065 PWs)   bands (ev):

   -67.4597 -67.4271 -67.4218 -67.4218 -67.4165 -67.4165 -67.4154 -67.4101
   -67.3121 -67.3094 -67.3068 -67.3061 -67.3030 -67.2838 -33.7415 -33.7413
   -33.7413 -33.7122 -33.7087 -33.7087 -33.6109 -33.5985 -33.5957 -33.5957
   -33.5905 -33.5835 -33.5757 -33.5757 -33.5602 -33.5502 -33.5502 -33.5145
   -33.5145 -33.5048 -33.4991 -33.4868 -33.4849 -33.4808 -33.4430 -33.4298
   -33.4298 -33.4214 -33.3926 -33.3926 -33.3508 -33.3490 -33.3490 -33.3475
   -33.3475 -33.3420 -33.2785 -33.2719 -33.2719 -33.2556 -33.2556 -33.2526
     7.7189   9.3669  12.3280  12.5702  12.7543  12.7543  14.1878  14.2586
    14.2586  14.3290  14.4282  14.4359  14.6484  14.9806  15.2929  15.4625
    15.6903  15.6903  15.7026  15.7026  16.1250  16.2257  16.2533  16.2533
    16.3220  16.4873  16.4873  16.6286  16.9222  16.9244  16.9244  16.9857
    16.9857  17.1908  17.4256  17.5794  17.5794  17.6156  17.7657  17.7657
    18.1132  18.1132  18.1560  18.1797  18.1824  18.2307  18.2968  18.2968
    18.3018  18.3018  18.5009  18.6272  18.8351  18.9765  18.9765  19.2486
    19.3239  19.4570  19.6083  19.6083  19.6223  19.6966  19.7689  19.8022
    19.8578  19.9012  19.9265  19.9692  19.9726  20.0875  20.0875  20.2421
    20.3541  20.3541  20.3676  20.4201  20.4464  20.4464  20.4739  20.5654
    20.8441  20.8973  20.8973

          k = 0.0000 0.0000 0.4023 (  8013 PWs)   bands (ev):

   -67.4507 -67.4382 -67.4200 -67.4200 -67.4181 -67.4181 -67.4137 -67.4116
   -67.3103 -67.3084 -67.3056 -67.3053 -67.2986 -67.2900 -33.7036 -33.7030
   -33.7030 -33.6883 -33.6741 -33.6741 -33.6515 -33.6506 -33.6500 -33.6500
   -33.6189 -33.6189 -33.5931 -33.5889 -33.5603 -33.5603 -33.5412 -33.5383
   -33.5383 -33.5190 -33.4966 -33.4922 -33.4849 -33.4827 -33.4060 -33.3901
   -33.3901 -33.3738 -33.3720 -33.3630 -33.3630 -33.3332 -33.3332 -33.3226
   -33.3226 -33.3177 -33.3065 -33.2934 -33.2934 -33.2856 -33.2856 -33.2740
     8.1888   8.8300  12.2226  12.4320  13.1586  13.1586  13.7228  13.7228
    14.2941  14.3974  14.4840  14.5267  15.0393  15.0939  15.2108  15.5931
    15.6921  15.7450  15.7450  15.7642  15.7642  16.0575  16.3705  16.3705
    16.5572  16.5572  16.6174  16.6409  16.8737  16.8737  17.0142  17.0661
    17.0728  17.0746  17.0746  17.2131  17.2854  17.2854  17.3682  17.3929
    17.3929  17.6545  17.9687  17.9687  18.2137  18.2137  18.4087  18.6482
    18.7741  18.8239  18.8239  18.9685  19.2221  19.2878  19.2900  19.3164
    19.3164  19.4972  19.4972  19.6476  19.7276  19.7571  19.7952  19.8383
    19.8823  19.9379  19.9535  19.9597  19.9597  19.9601  20.0517  20.0670
    20.1832  20.2652  20.2939  20.2939  20.4204  20.4204  20.5088  20.5230
    21.4903  21.4903  21.7861

          k = 0.0000 0.2012 0.2012 (  8065 PWs)   bands (ev):

   -67.4566 -67.4275 -67.4250 -67.4211 -67.4176 -67.4158 -67.4158 -67.4108
   -67.3103 -67.3078 -67.3068 -67.3062 -67.3031 -67.2859 -33.7380 -33.7286
   -33.7261 -33.7048 -33.6981 -33.6933 -33.6327 -33.6274 -33.6163 -33.6085
   -33.5857 -33.5854 -33.5717 -33.5708 -33.5681 -33.5612 -33.5305 -33.5280
   -33.5133 -33.5077 -33.5075 -33.4979 -33.4891 -33.4848 -33.4475 -33.4435
   -33.4075 -33.3992 -33.3732 -33.3677 -33.3646 -33.3503 -33.3492 -33.3421
   -33.3308 -33.3220 -33.3068 -33.2787 -33.2686 -33.2642 -33.2638 -33.2523
     7.8796   9.2678  12.0055  12.4826  12.8926  12.8978  13.9472  14.1869
    14.2639  14.4519  14.5938  14.6690  14.6848  15.0188  15.2652  15.3625
    15.6813  15.7490  15.7525  15.8545  16.1522  16.2489  16.2814  16.3023
    16.3814  16.3883  16.4933  16.5072  16.7007  16.8622  16.9349  16.9864
    17.1228  17.1272  17.3232  17.3371  17.4179  17.4512  17.7502  17.7555
    17.8123  17.8575  17.8681  18.1312  18.1682  18.2738  18.3780  18.4065
    18.4562  18.4658  18.6338  18.7642  18.7986  18.8938  19.2049  19.3629
    19.5425  19.5648  19.5682  19.5963  19.6141  19.6669  19.7232  19.8456
    19.8497  19.8599  19.8947  19.9401  19.9783  20.0634  20.0886  20.0974
    20.1917  20.2670  20.2917  20.4518  20.4838  20.5342  20.6064  20.7546
    21.0666  21.0898  21.3003

          k = 0.0000 0.2012 0.4023 (  8012 PWs)   bands (ev):

   -67.4482 -67.4368 -67.4230 -67.4201 -67.4194 -67.4174 -67.4142 -67.4121
   -67.3087 -67.3074 -67.3056 -67.3047 -67.2994 -67.2915 -33.7130 -33.7004
   -33.6941 -33.6834 -33.6734 -33.6676 -33.6663 -33.6518 -33.6494 -33.6486
   -33.6208 -33.5959 -33.5872 -33.5773 -33.5572 -33.5502 -33.5477 -33.5324
   -33.5301 -33.5208 -33.5041 -33.4987 -33.4973 -33.4908 -33.4242 -33.4121
   -33.3922 -33.3825 -33.3777 -33.3662 -33.3594 -33.3523 -33.3309 -33.3249
   -33.3221 -33.2975 -33.2974 -33.2944 -33.2901 -33.2876 -33.2733 -33.2646
     8.3202   8.8820  11.8407  12.1386  13.2529  13.2710  13.6772  13.7755
    14.2208  14.5457  14.7471  14.8106  15.0745  15.1240  15.2184  15.5360
    15.6622  15.7215  15.8422  15.8561  15.8727  16.1020  16.3514  16.4029
    16.4762  16.4802  16.6204  16.6263  16.6359  16.7795  16.9342  16.9628
    16.9945  17.0862  17.1162  17.1230  17.1785  17.1913  17.2444  17.3070
    17.3870  17.6639  17.9587  18.1212  18.1387  18.1992  18.4503  18.5192
    18.7072  18.7358  18.9241  19.1002  19.1067  19.1813  19.2100  19.2513
    19.3554  19.3706  19.5505  19.5871  19.6296  19.7189  19.7479  19.8214
    19.8981  19.9364  19.9538  19.9595  19.9644  19.9790  20.0244  20.0704
    20.1124  20.2089  20.2215  20.4226  20.5898  20.6729  20.7595  20.9748
    21.5214  21.7241  22.0672

          k = 0.0000 0.4023 0.4023 (  8042 PWs)   bands (ev):

   -67.4417 -67.4347 -67.4287 -67.4249 -67.4178 -67.4158 -67.4158 -67.4138
   -67.3067 -67.3062 -67.3046 -67.3026 -67.3003 -67.2956 -33.7080 -33.6971
   -33.6916 -33.6860 -33.6805 -33.6727 -33.6716 -33.6535 -33.6502 -33.6307
   -33.5973 -33.5789 -33.5759 -33.5511 -33.5496 -33.5483 -33.5351 -33.5332
   -33.5306 -33.5257 -33.5159 -33.5153 -33.5100 -33.5034 -33.4350 -33.4350
   -33.4195 -33.4077 -33.3940 -33.3811 -33.3590 -33.3542 -33.3192 -33.3134
   -33.3086 -33.3082 -33.3012 -33.2947 -33.2713 -33.2707 -33.2639 -33.2602
     8.6407   8.8928  11.4037  11.5793  13.5415  13.5748  13.7709  13.9620
    13.9686  14.4069  14.9430  14.9997  15.1943  15.4008  15.4053  15.5189
    15.6289  15.7627  15.9253  16.0116  16.0120  16.0834  16.1803  16.2757
    16.2826  16.3684  16.5790  16.6604  16.6971  16.7655  16.7742  16.8097
    16.8114  16.8361  16.9073  16.9477  17.0879  17.1122  17.1131  17.1153
    17.6265  17.8202  17.9996  18.0441  18.1154  18.1179  18.2599  18.4224
    18.6216  18.7942  18.9312  18.9472  19.0457  19.2247  19.3397  19.3813
    19.3898  19.4006  19.4270  19.4535  19.5187  19.6040  19.7064  19.8020
    19.8417  19.8556  19.9108  19.9322  19.9469  19.9964  20.0301  20.0726
    20.1038  20.1684  20.4218  20.5356  20.8865  20.9709  21.1464  21.2165
    21.5048  21.9124  22.3335

          k = 0.2012 0.2012 0.2012 (  8066 PWs)   bands (ev):

   -67.4537 -67.4264 -67.4264 -67.4229 -67.4170 -67.4170 -67.4165 -67.4114
   -67.3076 -67.3076 -67.3064 -67.3064 -67.3032 -67.2877 -33.7301 -33.7186
   -33.7186 -33.6888 -33.6875 -33.6875 -33.6485 -33.6404 -33.6404 -33.5877
   -33.5877 -33.5846 -33.5802 -33.5802 -33.5535 -33.5500 -33.5424 -33.5424
   -33.5224 -33.5224 -33.5162 -33.5102 -33.4935 -33.4935 -33.4342 -33.4113
   -33.4113 -33.3815 -33.3815 -33.3665 -33.3665 -33.3458 -33.3450 -33.3418
   -33.3302 -33.3097 -33.3097 -33.2730 -33.2730 -33.2718 -33.2718 -33.2559
     8.0328   9.2132  12.1627  12.1627  12.3906  13.4507  13.8729  13.8729
    14.1478  14.7107  14.7107  14.8800  14.8800  15.1662  15.1662  15.2569
    15.7364  15.7364  15.7886  16.0700  16.1624  16.1624  16.2916  16.3684
    16.4001  16.4001  16.4020  16.4020  16.7435  16.7435  16.9251  16.9251
    17.0901  17.2157  17.2157  17.2548  17.3545  17.3545  17.5057  17.5094
    17.5452  17.5452  17.9796  17.9796  18.1515  18.1515  18.4749  18.4978
    18.5779  18.6524  18.8916  18.8916  18.9747  18.9747  19.1176  19.2492
    19.4352  19.5034  19.5034  19.6564  19.6564  19.7640  19.7640  19.8506
    19.8506  19.8511  19.8511  19.9009  19.9745  20.0554  20.1598  20.1598
    20.1803  20.1803  20.3084  20.4226  20.5880  20.5880  20.6615  20.6615
    21.2413  21.2413  22.0430

          k = 0.2012 0.2012 0.4023 (  8020 PWs)   bands (ev):

   -67.4458 -67.4354 -67.4234 -67.4212 -67.4198 -67.4187 -67.4149 -67.4129
   -67.3070 -67.3066 -67.3054 -67.3045 -67.3000 -67.2928 -33.7061 -33.7012
   -33.6882 -33.6763 -33.6758 -33.6719 -33.6614 -33.6556 -33.6445 -33.6409
   -33.6064 -33.5897 -33.5836 -33.5795 -33.5648 -33.5572 -33.5431 -33.5378
   -33.5241 -33.5229 -33.5184 -33.5155 -33.5083 -33.5043 -33.4151 -33.4085
   -33.3894 -33.3828 -33.3758 -33.3722 -33.3669 -33.3502 -33.3430 -33.3234
   -33.3107 -33.3006 -33.2935 -33.2885 -33.2866 -33.2843 -33.2737 -33.2661
     8.4440   8.9327  11.8300  12.0541  12.6031  13.2269  13.7939  13.9361
    14.2107  14.6030  14.9568  15.0283  15.1590  15.1919  15.2409  15.5150
    15.6873  15.7592  15.8533  15.8816  16.0537  16.1413  16.3555  16.4399
    16.4543  16.4545  16.5244  16.5920  16.6182  16.7210  16.9026  16.9220
    16.9732  16.9813  17.0013  17.0173  17.0496  17.0624  17.1369  17.2568
    17.4088  17.4730  17.9406  18.1001  18.1118  18.1157  18.3087  18.4192
    18.7904  18.8705  18.9045  19.0410  19.1922  19.2562  19.2887  19.3432
    19.4204  19.4591  19.4707  19.5254  19.6474  19.7037  19.7790  19.8607
    19.8711  19.9005  19.9484  19.9524  19.9739  20.0008  20.0225  20.0623
    20.0725  20.1635  20.2251  20.2833  20.6124  20.8124  20.9799  21.1325
    21.4547  21.5847  22.3538

          k = 0.2012 0.4023 0.4023 (  8029 PWs)   bands (ev):

   -67.4396 -67.4331 -67.4281 -67.4242 -67.4197 -67.4177 -67.4166 -67.4148
   -67.3054 -67.3053 -67.3044 -67.3027 -67.3008 -67.2964 -33.6973 -33.6864
   -33.6841 -33.6798 -33.6779 -33.6686 -33.6576 -33.6514 -33.6440 -33.6222
   -33.6048 -33.5749 -33.5710 -33.5680 -33.5604 -33.5602 -33.5546 -33.5425
   -33.5399 -33.5385 -33.5332 -33.5303 -33.5265 -33.5191 -33.4157 -33.4050
   -33.4021 -33.3962 -33.3734 -33.3714 -33.3592 -33.3512 -33.3260 -33.3192
   -33.3055 -33.3028 -33.3015 -33.2972 -33.2751 -33.2751 -33.2716 -33.2680
     8.7385   8.9544  11.5785  11.6973  12.7121  13.1213  13.5611  13.7748
    14.5106  14.6709  15.0411  15.1520  15.3321  15.3542  15.5193  15.6579
    15.7358  15.8283  15.9331  15.9765  16.1298  16.2268  16.3087  16.3205
    16.3466  16.3967  16.4966  16.6048  16.6529  16.7238  16.7382  16.7598
    16.7773  16.8074  16.8591  16.9162  16.9309  16.9786  17.0235  17.0462
    17.3812  17.4085  17.9268  17.9481  17.9826  18.0255  18.1162  18.1282
    18.9162  19.0130  19.1722  19.1834  19.2270  19.3056  19.4012  19.4142
    19.4288  19.4862  19.5096  19.5506  19.6224  19.6859  19.7063  19.7114
    19.8356  19.8377  19.8627  19.8965  19.9282  19.9681  19.9704  20.0726
    20.1274  20.2179  20.2573  20.2928  20.7475  20.9617  21.1861  21.4252
    21.4389  21.9897  23.0378

          k = 0.4023 0.4023 0.4023 (  8030 PWs)   bands (ev):

   -67.4345 -67.4285 -67.4285 -67.4231 -67.4226 -67.4226 -67.4183 -67.4171
   -67.3037 -67.3037 -67.3034 -67.3020 -67.3020 -67.2988 -33.6678 -33.6678
   -33.6676 -33.6676 -33.6648 -33.6581 -33.6452 -33.6257 -33.6257 -33.6194
   -33.6194 -33.6025 -33.5863 -33.5863 -33.5842 -33.5822 -33.5822 -33.5592
   -33.5585 -33.5528 -33.5528 -33.5387 -33.5387 -33.5279 -33.3977 -33.3965
   -33.3622 -33.3622 -33.3583 -33.3583 -33.3411 -33.3385 -33.3385 -33.3161
   -33.3090 -33.3090 -33.3025 -33.2938 -33.2938 -33.2841 -33.2841 -33.2829
     8.9457   9.0384  11.8801  12.0754  12.0754  12.7997  12.7997  13.2253
    14.9383  15.1551  15.2460  15.2460  15.3621  15.3621  15.8355  15.8355
    16.0179  16.0228  16.0527  16.0527  16.1634  16.3802  16.3802  16.3868
    16.3868  16.3965  16.4730  16.5878  16.5878  16.6297  16.6297  16.7074
    16.7372  16.7723  16.7723  16.7973  16.7973  16.8265  16.8265  16.8461
    16.8461  17.0508  17.7678  17.7678  17.7712  17.8498  17.8498  17.8932
    19.2928  19.3343  19.4206  19.4206  19.5032  19.5303  19.5303  19.5654
    19.6017  19.6017  19.6592  19.6592  19.7102  19.7102  19.7384  19.7838
    19.7838  19.8342  19.8554  19.8554  19.8644  19.8652  19.8652  19.9527
    19.9527  19.9880  20.0666  20.1943  20.1943  20.6103  21.7058  22.1327
    22.1327  23.0239  23.0239

     the Fermi energy is    18.3040 ev

!    total energy              =   -4632.67228828 Ry
     estimated scf accuracy    <          7.1E-11 Ry
     smearing contrib. (-TS)   =       0.00001789 Ry
     internal energy E=F+TS    =   -4632.67230617 Ry

     The total energy is F=E-TS. E is the sum of the following terms:
     one-electron contribution =   -1683.57363467 Ry
     hartree contribution      =     996.07728671 Ry
     xc contribution           =    -500.39962282 Ry
     ewald contribution        =   -2378.65614451 Ry
     one-center paw contrib.   =   -1066.12019087 Ry

     total magnetization       =    26.42 Bohr mag/cell
     absolute magnetization    =    28.51 Bohr mag/cell

     convergence has been achieved in  20 iterations

     negative rho (up, down):  0.000E+00 1.173E-03

     Forces acting on atoms (cartesian axes, Ry/au):

     atom    1 type  1   force =     0.00000000    0.00000000    0.00000000
     atom    2 type  2   force =     0.00000000    0.00000000    0.00000000
     atom    3 type  2   force =     0.00000000    0.00000000    0.00000000
     atom    4 type  2   force =     0.00000000    0.00000000    0.00000000
     atom    5 type  2   force =    -0.00000214   -0.00000214   -0.00000214
     atom    6 type  2   force =    -0.00000214    0.00000214    0.00000214
     atom    7 type  2   force =     0.00000214   -0.00000214    0.00000214
     atom    8 type  2   force =     0.00000214    0.00000214   -0.00000214
     atom    9 type  2   force =     0.00000214    0.00000214    0.00000214
     atom   10 type  2   force =     0.00000214   -0.00000214   -0.00000214
     atom   11 type  2   force =    -0.00000214    0.00000214   -0.00000214
     atom   12 type  2   force =    -0.00000214   -0.00000214    0.00000214
     atom   13 type  1   force =     0.00000000    0.00000000    0.00000000
     atom   14 type  2   force =     0.00000000    0.00000000    0.00000000
     atom   15 type  2   force =     0.00000000    0.00000000    0.00000000
     atom   16 type  2   force =     0.00000000    0.00000000    0.00000000

     Total force =     0.000010     Total SCF correction =     0.000029
     SCF correction compared to forces is large: reduce conv_thr to get better values


     Computing stress (Cartesian axis) and pressure


     negative rho (up, down):  0.000E+00 1.173E-03
          total   stress  (Ry/bohr**3)                   (kbar)     P=       -4.59
  -0.00003120   0.00000000   0.00000000           -4.59        0.00        0.00
   0.00000000  -0.00003120   0.00000000            0.00       -4.59        0.00
   0.00000000   0.00000000  -0.00003120            0.00        0.00       -4.59


     Writing all to output data dir ./file.save/

     init_run     :     81.82s CPU     85.64s WALL (       2 calls)
     electrons    :   9422.46s CPU   9809.19s WALL (       4 calls)
     update_pot   :     10.75s CPU     11.12s WALL (       2 calls)
     forces       :    100.52s CPU    104.68s WALL (       4 calls)
     stress       :    134.98s CPU    141.21s WALL (       4 calls)

     Called by init_run:
     wfcinit      :     71.04s CPU     74.70s WALL (       2 calls)
     potinit      :      4.46s CPU      4.50s WALL (       2 calls)
     hinit0       :      4.21s CPU      4.21s WALL (       2 calls)

     Called by electrons:
     c_bands      :   8587.31s CPU   8929.00s WALL (      87 calls)
     sum_band     :    639.84s CPU    672.48s WALL (      87 calls)
     v_of_rho     :     13.25s CPU     13.83s WALL (      91 calls)
     newd         :     86.14s CPU     94.80s WALL (      91 calls)
     PAW_pot      :    103.11s CPU    106.49s WALL (      93 calls)
     mix_rho      :      2.68s CPU      2.79s WALL (      87 calls)

     Called by c_bands:
     init_us_2    :     13.14s CPU     13.91s WALL (    3720 calls)
     init_us_2:cp :     13.10s CPU     13.89s WALL (    3720 calls)
     cegterg      :   8519.00s CPU   8857.67s WALL (    1740 calls)

     Called by *egterg:
     cdiaghg      :    655.08s CPU    677.93s WALL (    7532 calls)
     h_psi        :   2851.36s CPU   2978.64s WALL (    7612 calls)
     s_psi        :   1140.17s CPU   1182.68s WALL (    7612 calls)
     g_psi        :      3.53s CPU      3.65s WALL (    5832 calls)

     Called by h_psi:
     h_psi:calbec :   1194.18s CPU   1241.69s WALL (    7612 calls)
     vloc_psi     :    480.86s CPU    507.36s WALL (    7612 calls)
     add_vuspsi   :   1165.95s CPU   1218.20s WALL (    7612 calls)

     General routines
     calbec       :   1728.22s CPU   1797.81s WALL (    9792 calls)
     fft          :      8.97s CPU      9.31s WALL (    2429 calls)
     ffts         :      0.41s CPU      0.42s WALL (     356 calls)
     fftw         :    514.48s CPU    543.47s WALL ( 1611290 calls)
     interpolate  :      0.92s CPU      0.96s WALL (     182 calls)

     Parallel routines

     PWSCF        :      2h42m CPU      2h49m WALL


   This run was terminated on:   9: 7:55  26Nov2022            

=------------------------------------------------------------------------------=
   JOB DONE.
=------------------------------------------------------------------------------=
