
     Program PWSCF v.6.5 starts on  4Dec2022 at 21:37:25 

     This program is part of the open-source Quantum ESPRESSO suite
     for quantum simulation of materials; please cite
         "P. Giannozzi et al., J. Phys.:Condens. Matter 21 395502 (2009);
         "P. Giannozzi et al., J. Phys.:Condens. Matter 29 465901 (2017);
          URL http://www.quantum-espresso.org", 
     in publications or presentations arising from this work. More details at
     http://www.quantum-espresso.org/quote

     Parallel version (MPI), running on    20 processors

     MPI processes distributed on     1 nodes
     R & G space division:  proc/nbgrp/npool/nimage =      20
     Reading input from 32_8Si_2.in

     Current dimensions of program PWSCF are:
     Max number of different atomic species (ntypx) = 10
     Max number of k-points (npk) =  40000
     Max angular momentum in pseudopotentials (lmaxx) =  3

     IMPORTANT: XC functional enforced from input :
     Exchange-correlation= PBE
                           (   1   4   3   4   0   0   0)
     Any further DFT definition will be discarded
     Please, verify this is what you really want

               file Fe.pbe-spn-kjpaw_psl.0.2.1.UPF: wavefunction(s)  3D renormalized

     Subspace diagonalization in iterative solution of the eigenvalue problem:
     one sub-group per band group will be used
     scalapack distributed-memory algorithm (size of sub-group:  4*  4 procs)

     Message from routine setup:
     using ibrav=0 with symmetry is DISCOURAGED, use correct ibrav instead
 
     Parallelization info
     --------------------
     sticks:   dense  smooth     PW     G-vecs:    dense   smooth      PW
     Min         392     194     54                18490     6520     940
     Max         394     195     55                18491     6525     942
     Sum        7847    3895   1083               369801   130447   18805
 


     bravais-lattice index     =            0
     lattice parameter (alat)  =      10.6864  a.u.
     unit-cell volume          =    2440.7564 (a.u.)^3
     number of atoms/cell      =           32
     number of atomic types    =            2
     number of electrons       =       416.00
     number of Kohn-Sham states=          250
     kinetic-energy cutoff     =      54.0000  Ry
     charge density cutoff     =     432.0000  Ry
     convergence threshold     =      1.0E-08
     mixing beta               =       0.1000
     number of iterations used =            8  plain     mixing
     Exchange-correlation= PBE
                           (   1   4   3   4   0   0   0)
     nstep                     =           50


     celldm(1)=  10.686401  celldm(2)=   0.000000  celldm(3)=   0.000000
     celldm(4)=   0.000000  celldm(5)=   0.000000  celldm(6)=   0.000000

     crystal axes: (cart. coord. in units of alat)
               a(1) = (   2.000000   0.000000   0.000000 )  
               a(2) = (   0.000000   1.000000   0.000000 )  
               a(3) = (   0.000000   0.000000   1.000000 )  

     reciprocal axes: (cart. coord. in units 2 pi/alat)
               b(1) = (  0.500000  0.000000  0.000000 )  
               b(2) = (  0.000000  1.000000  0.000000 )  
               b(3) = (  0.000000  0.000000  1.000000 )  


     PseudoPot. # 1 for Si read from file:
     ./Si.pbe-n-rrkjus_psl.1.0.0.UPF
     MD5 check sum: 0b0bb1205258b0d07b9f9672cf965d36
     Pseudo is Ultrasoft + core correction, Zval =  4.0
     Generated using "atomic" code by A. Dal Corso v.5.1
     Using radial grid of 1141 points,  6 beta functions with: 
                l(1) =   0
                l(2) =   0
                l(3) =   1
                l(4) =   1
                l(5) =   2
                l(6) =   2
     Q(r) pseudized with 0 coefficients 


     PseudoPot. # 2 for Fe read from file:
     ./Fe.pbe-spn-kjpaw_psl.0.2.1.UPF
     MD5 check sum: e86618425769142926afa95317d90200
     Pseudo is Projector augmented-wave + core cor, Zval = 16.0
     Generated using "atomic" code by A. Dal Corso v.5.0.99 svn rev. 10869
     Shape of augmentation charge: PSQ
     Using radial grid of 1191 points,  6 beta functions with: 
                l(1) =   0
                l(2) =   0
                l(3) =   1
                l(4) =   1
                l(5) =   2
                l(6) =   2
     Q(r) pseudized with 0 coefficients 


     atomic species   valence    mass     pseudopotential
        Si             4.00    28.08500     Si( 1.00)
        Fe            16.00    55.84500     Fe( 1.00)

     Starting magnetic structure 
     atomic species   magnetization
        Si           1.000
        Fe           1.000

      8 Sym. Ops. (no inversion) found



   Cartesian axes

     site n.     atom                  positions (alat units)
         1           Si  tau(   1) = (   0.5000000   0.5000000   0.5000000  )
         2           Fe  tau(   2) = (   0.5000000   1.0000000   1.0000000  )
         3           Si  tau(   3) = (   1.0000000   0.5000000   1.0000000  )
         4           Si  tau(   4) = (   1.0000000   1.0000000   0.5000000  )
         5           Fe  tau(   5) = (   0.2500000   0.2500000   0.2500000  )
         6           Fe  tau(   6) = (   0.2500000   0.7500000   0.7500000  )
         7           Si  tau(   7) = (   0.7500000   0.2500000   0.7500000  )
         8           Si  tau(   8) = (   0.7500000   0.7500000   0.2500000  )
         9           Fe  tau(   9) = (   0.7500000   0.7500000   0.7500000  )
        10           Fe  tau(  10) = (   0.7500000   0.2500000   0.2500000  )
        11           Fe  tau(  11) = (   0.2500000   0.7500000   0.2500000  )
        12           Fe  tau(  12) = (   0.2500000   0.2500000   0.7500000  )
        13           Fe  tau(  13) = (   0.0000000   0.0000000   0.0000000  )
        14           Fe  tau(  14) = (   0.0000000   0.5000000   0.5000000  )
        15           Fe  tau(  15) = (   0.5000000   0.0000000   0.5000000  )
        16           Fe  tau(  16) = (   0.5000000   0.5000000   0.0000000  )
        17           Si  tau(  17) = (   1.5000000   0.5000000   0.5000000  )
        18           Fe  tau(  18) = (   1.5000000   1.0000000   1.0000000  )
        19           Fe  tau(  19) = (   2.0000000   0.5000000   1.0000000  )
        20           Fe  tau(  20) = (   2.0000000   1.0000000   0.5000000  )
        21           Si  tau(  21) = (   1.2500000   0.2500000   0.2500000  )
        22           Si  tau(  22) = (   1.2500000   0.7500000   0.7500000  )
        23           Fe  tau(  23) = (   1.7500000   0.2500000   0.7500000  )
        24           Fe  tau(  24) = (   1.7500000   0.7500000   0.2500000  )
        25           Fe  tau(  25) = (   1.7500000   0.7500000   0.7500000  )
        26           Fe  tau(  26) = (   1.7500000   0.2500000   0.2500000  )
        27           Fe  tau(  27) = (   1.2500000   0.7500000   0.2500000  )
        28           Fe  tau(  28) = (   1.2500000   0.2500000   0.7500000  )
        29           Fe  tau(  29) = (   1.0000000   0.0000000   0.0000000  )
        30           Fe  tau(  30) = (   1.0000000   0.5000000   0.5000000  )
        31           Fe  tau(  31) = (   1.5000000   0.0000000   0.5000000  )
        32           Fe  tau(  32) = (   1.5000000   0.5000000   0.0000000  )

     number of k points=    18  Marzari-Vanderbilt smearing, width (Ry)=  0.0050
                       cart. coord. in units 2pi/alat
        k(    1) = (   0.0000000   0.0000000   0.0000000), wk =   0.0080000
        k(    2) = (   0.0000000   0.0000000   0.2000000), wk =   0.0320000
        k(    3) = (   0.0000000   0.0000000   0.4000000), wk =   0.0320000
        k(    4) = (   0.0000000   0.2000000   0.2000000), wk =   0.0320000
        k(    5) = (   0.0000000   0.2000000   0.4000000), wk =   0.0640000
        k(    6) = (   0.0000000   0.4000000   0.4000000), wk =   0.0320000
        k(    7) = (   0.1000000   0.0000000   0.0000000), wk =   0.0160000
        k(    8) = (   0.1000000   0.0000000   0.2000000), wk =   0.0640000
        k(    9) = (   0.1000000   0.0000000   0.4000000), wk =   0.0640000
        k(   10) = (   0.1000000   0.2000000   0.2000000), wk =   0.0640000
        k(   11) = (   0.1000000   0.2000000   0.4000000), wk =   0.1280000
        k(   12) = (   0.1000000   0.4000000   0.4000000), wk =   0.0640000
        k(   13) = (   0.2000000   0.0000000   0.0000000), wk =   0.0160000
        k(   14) = (   0.2000000   0.0000000   0.2000000), wk =   0.0640000
        k(   15) = (   0.2000000   0.0000000   0.4000000), wk =   0.0640000
        k(   16) = (   0.2000000   0.2000000   0.2000000), wk =   0.0640000
        k(   17) = (   0.2000000   0.2000000   0.4000000), wk =   0.1280000
        k(   18) = (   0.2000000   0.4000000   0.4000000), wk =   0.0640000

     Dense  grid:   369801 G-vectors     FFT dimensions: ( 144,  72,  72)

     Smooth grid:   130447 G-vectors     FFT dimensions: ( 100,  50,  50)

     Estimated max dynamical RAM per process >     231.60 MB

     Estimated total dynamical RAM >       4.52 GB
     Generating pointlists ...
     new r_m :   0.1786 (alat units)  1.9088 (a.u.) for type    1
     new r_m :   0.1786 (alat units)  1.9088 (a.u.) for type    2

     Check: negative core charge=   -0.000061

     Initial potential from superposition of free atoms

     starting charge  415.98501, renormalised to  416.00000
     Starting wfcs are  344 randomized atomic wfcs
     Checking if some PAW data can be deallocated... 

     total cpu time spent up to now is       23.6 secs

     Self-consistent Calculation

     iteration #  1     ecut=    54.00 Ry     beta= 0.10
     Davidson diagonalization with overlap
     ethr =  1.00E-02,  avg # of iterations =  3.2

     total cpu time spent up to now is       87.4 secs

     total energy              =   -7918.92254765 Ry
     Harris-Foulkes estimate   =   -7872.45216236 Ry
     estimated scf accuracy    <     103.29087436 Ry

     total magnetization       =    84.00 Bohr mag/cell
     absolute magnetization    =   110.22 Bohr mag/cell

     iteration #  2     ecut=    54.00 Ry     beta= 0.10
     Davidson diagonalization with overlap
     ethr =  1.00E-02,  avg # of iterations =  1.6

     total cpu time spent up to now is      127.4 secs

     total energy              =   -7933.16418944 Ry
     Harris-Foulkes estimate   =   -7921.26434627 Ry
     estimated scf accuracy    <      89.70149390 Ry

     total magnetization       =    84.00 Bohr mag/cell
     absolute magnetization    =    97.99 Bohr mag/cell

     iteration #  3     ecut=    54.00 Ry     beta= 0.10
     Davidson diagonalization with overlap
     ethr =  1.00E-02,  avg # of iterations =  1.4

     total cpu time spent up to now is      165.7 secs

     total energy              =   -7969.00733254 Ry
     Harris-Foulkes estimate   =   -7934.52930099 Ry
     estimated scf accuracy    <      76.18512977 Ry

     total magnetization       =    84.00 Bohr mag/cell
     absolute magnetization    =    96.52 Bohr mag/cell

     iteration #  4     ecut=    54.00 Ry     beta= 0.10
     Davidson diagonalization with overlap
     ethr =  1.00E-02,  avg # of iterations =  1.2

     total cpu time spent up to now is      203.4 secs

     total energy              =   -7989.98080082 Ry
     Harris-Foulkes estimate   =   -7969.80120877 Ry
     estimated scf accuracy    <      33.89136548 Ry

     total magnetization       =    84.00 Bohr mag/cell
     absolute magnetization    =    89.42 Bohr mag/cell

     iteration #  5     ecut=    54.00 Ry     beta= 0.10
     Davidson diagonalization with overlap
     ethr =  8.15E-03,  avg # of iterations =  2.0

     total cpu time spent up to now is      247.0 secs

     total energy              =   -7993.51744492 Ry
     Harris-Foulkes estimate   =   -7994.47728658 Ry
     estimated scf accuracy    <      40.64053223 Ry

     total magnetization       =    56.55 Bohr mag/cell
     absolute magnetization    =    65.35 Bohr mag/cell

     iteration #  6     ecut=    54.00 Ry     beta= 0.10
     Davidson diagonalization with overlap
     ethr =  8.15E-03,  avg # of iterations =  1.0

     total cpu time spent up to now is      283.9 secs

     total energy              =   -7993.19472468 Ry
     Harris-Foulkes estimate   =   -7993.97585618 Ry
     estimated scf accuracy    <      10.39989770 Ry

     total magnetization       =    55.88 Bohr mag/cell
     absolute magnetization    =    64.91 Bohr mag/cell

     iteration #  7     ecut=    54.00 Ry     beta= 0.10
     Davidson diagonalization with overlap
     ethr =  2.50E-03,  avg # of iterations =  1.2

     total cpu time spent up to now is      321.4 secs

     total energy              =   -7993.66384956 Ry
     Harris-Foulkes estimate   =   -7993.66427280 Ry
     estimated scf accuracy    <       1.00827667 Ry

     total magnetization       =    53.47 Bohr mag/cell
     absolute magnetization    =    61.57 Bohr mag/cell

     iteration #  8     ecut=    54.00 Ry     beta= 0.10
     Davidson diagonalization with overlap
     ethr =  2.42E-04,  avg # of iterations =  4.8

     total cpu time spent up to now is      374.7 secs

     total energy              =   -7993.66718557 Ry
     Harris-Foulkes estimate   =   -7993.74068608 Ry
     estimated scf accuracy    <       2.24231405 Ry

     total magnetization       =    52.98 Bohr mag/cell
     absolute magnetization    =    60.59 Bohr mag/cell

     iteration #  9     ecut=    54.00 Ry     beta= 0.10
     Davidson diagonalization with overlap
     ethr =  2.42E-04,  avg # of iterations =  1.2

     total cpu time spent up to now is      412.1 secs

     total energy              =   -7993.73436069 Ry
     Harris-Foulkes estimate   =   -7993.70810331 Ry
     estimated scf accuracy    <       0.42901584 Ry

     total magnetization       =    52.68 Bohr mag/cell
     absolute magnetization    =    59.80 Bohr mag/cell

     iteration # 10     ecut=    54.00 Ry     beta= 0.10
     Davidson diagonalization with overlap
     ethr =  1.03E-04,  avg # of iterations =  1.9

     total cpu time spent up to now is      452.7 secs

     total energy              =   -7993.71429504 Ry
     Harris-Foulkes estimate   =   -7993.75363623 Ry
     estimated scf accuracy    <       0.41598807 Ry

     total magnetization       =    52.07 Bohr mag/cell
     absolute magnetization    =    58.45 Bohr mag/cell

     iteration # 11     ecut=    54.00 Ry     beta= 0.10
     Davidson diagonalization with overlap
     ethr =  1.00E-04,  avg # of iterations =  4.1

     total cpu time spent up to now is      504.5 secs

     total energy              =   -7993.72619078 Ry
     Harris-Foulkes estimate   =   -7993.78337788 Ry
     estimated scf accuracy    <       0.91081585 Ry

     total magnetization       =    49.71 Bohr mag/cell
     absolute magnetization    =    55.21 Bohr mag/cell

     iteration # 12     ecut=    54.00 Ry     beta= 0.10
     Davidson diagonalization with overlap
     ethr =  1.00E-04,  avg # of iterations =  1.0

     total cpu time spent up to now is      541.3 secs

     total energy              =   -7993.80212877 Ry
     Harris-Foulkes estimate   =   -7993.77175915 Ry
     estimated scf accuracy    <       0.25054979 Ry

     total magnetization       =    50.05 Bohr mag/cell
     absolute magnetization    =    55.47 Bohr mag/cell

     iteration # 13     ecut=    54.00 Ry     beta= 0.10
     Davidson diagonalization with overlap
     ethr =  6.02E-05,  avg # of iterations =  1.7

     total cpu time spent up to now is      581.6 secs

     total energy              =   -7993.80770855 Ry
     Harris-Foulkes estimate   =   -7993.81352072 Ry
     estimated scf accuracy    <       0.64030900 Ry

     total magnetization       =    49.96 Bohr mag/cell
     absolute magnetization    =    54.69 Bohr mag/cell

     iteration # 14     ecut=    54.00 Ry     beta= 0.10
     Davidson diagonalization with overlap
     ethr =  6.02E-05,  avg # of iterations =  1.0

     total cpu time spent up to now is      618.4 secs

     total energy              =   -7993.82437396 Ry
     Harris-Foulkes estimate   =   -7993.81537689 Ry
     estimated scf accuracy    <       0.09471995 Ry

     total magnetization       =    50.07 Bohr mag/cell
     absolute magnetization    =    54.52 Bohr mag/cell

     iteration # 15     ecut=    54.00 Ry     beta= 0.10
     Davidson diagonalization with overlap
     ethr =  2.28E-05,  avg # of iterations =  1.0

     total cpu time spent up to now is      655.2 secs

     total energy              =   -7993.83110956 Ry
     Harris-Foulkes estimate   =   -7993.82612718 Ry
     estimated scf accuracy    <       0.02535548 Ry

     total magnetization       =    50.47 Bohr mag/cell
     absolute magnetization    =    54.66 Bohr mag/cell

     iteration # 16     ecut=    54.00 Ry     beta= 0.10
     Davidson diagonalization with overlap
     ethr =  6.10E-06,  avg # of iterations =  3.1

     total cpu time spent up to now is      700.4 secs

     total energy              =   -7993.83566332 Ry
     Harris-Foulkes estimate   =   -7993.83246200 Ry
     estimated scf accuracy    <       0.00364211 Ry

     total magnetization       =    50.72 Bohr mag/cell
     absolute magnetization    =    54.68 Bohr mag/cell

     iteration # 17     ecut=    54.00 Ry     beta= 0.10
     Davidson diagonalization with overlap
     ethr =  8.76E-07,  avg # of iterations =  4.1

     total cpu time spent up to now is      764.1 secs

     total energy              =   -7993.83774568 Ry
     Harris-Foulkes estimate   =   -7993.83640993 Ry
     estimated scf accuracy    <       0.00402094 Ry

     total magnetization       =    50.85 Bohr mag/cell
     absolute magnetization    =    54.59 Bohr mag/cell

     iteration # 18     ecut=    54.00 Ry     beta= 0.10
     Davidson diagonalization with overlap
     ethr =  8.76E-07,  avg # of iterations =  1.0

     total cpu time spent up to now is      800.7 secs

     total energy              =   -7993.83937544 Ry
     Harris-Foulkes estimate   =   -7993.83783944 Ry
     estimated scf accuracy    <       0.00161791 Ry

     total magnetization       =    50.82 Bohr mag/cell
     absolute magnetization    =    54.53 Bohr mag/cell

     iteration # 19     ecut=    54.00 Ry     beta= 0.10
     Davidson diagonalization with overlap
     ethr =  3.89E-07,  avg # of iterations =  1.8

     total cpu time spent up to now is      841.0 secs

     total energy              =   -7993.84039712 Ry
     Harris-Foulkes estimate   =   -7993.83949277 Ry
     estimated scf accuracy    <       0.00108630 Ry

     total magnetization       =    50.77 Bohr mag/cell
     absolute magnetization    =    54.37 Bohr mag/cell

     iteration # 20     ecut=    54.00 Ry     beta= 0.10
     Davidson diagonalization with overlap
     ethr =  2.61E-07,  avg # of iterations =  2.3

     total cpu time spent up to now is      891.2 secs

     total energy              =   -7993.84147553 Ry
     Harris-Foulkes estimate   =   -7993.84069602 Ry
     estimated scf accuracy    <       0.00068623 Ry

     total magnetization       =    50.61 Bohr mag/cell
     absolute magnetization    =    54.05 Bohr mag/cell

     iteration # 21     ecut=    54.00 Ry     beta= 0.10
     Davidson diagonalization with overlap
     ethr =  1.65E-07,  avg # of iterations =  1.1

     total cpu time spent up to now is      928.3 secs

     total energy              =   -7993.84214976 Ry
     Harris-Foulkes estimate   =   -7993.84151616 Ry
     estimated scf accuracy    <       0.00037148 Ry

     total magnetization       =    50.56 Bohr mag/cell
     absolute magnetization    =    53.95 Bohr mag/cell

     iteration # 22     ecut=    54.00 Ry     beta= 0.10
     Davidson diagonalization with overlap
     ethr =  8.93E-08,  avg # of iterations =  2.1

     total cpu time spent up to now is      972.4 secs

     total energy              =   -7993.84274682 Ry
     Harris-Foulkes estimate   =   -7993.84219247 Ry
     estimated scf accuracy    <       0.00021505 Ry

     total magnetization       =    50.50 Bohr mag/cell
     absolute magnetization    =    53.86 Bohr mag/cell

     iteration # 23     ecut=    54.00 Ry     beta= 0.10
     Davidson diagonalization with overlap
     ethr =  5.17E-08,  avg # of iterations =  1.6

     total cpu time spent up to now is     1011.7 secs

     total energy              =   -7993.84321580 Ry
     Harris-Foulkes estimate   =   -7993.84276194 Ry
     estimated scf accuracy    <       0.00014506 Ry

     total magnetization       =    50.48 Bohr mag/cell
     absolute magnetization    =    53.81 Bohr mag/cell

     iteration # 24     ecut=    54.00 Ry     beta= 0.10
     Davidson diagonalization with overlap
     ethr =  3.49E-08,  avg # of iterations =  1.8

     total cpu time spent up to now is     1052.6 secs

     total energy              =   -7993.84350817 Ry
     Harris-Foulkes estimate   =   -7993.84322659 Ry
     estimated scf accuracy    <       0.00010681 Ry

     total magnetization       =    50.47 Bohr mag/cell
     absolute magnetization    =    53.77 Bohr mag/cell

     iteration # 25     ecut=    54.00 Ry     beta= 0.10
     Davidson diagonalization with overlap
     ethr =  2.57E-08,  avg # of iterations =  2.4

     total cpu time spent up to now is     1100.2 secs

     total energy              =   -7993.84380825 Ry
     Harris-Foulkes estimate   =   -7993.84352742 Ry
     estimated scf accuracy    <       0.00007331 Ry

     total magnetization       =    50.47 Bohr mag/cell
     absolute magnetization    =    53.72 Bohr mag/cell

     iteration # 26     ecut=    54.00 Ry     beta= 0.10
     Davidson diagonalization with overlap
     ethr =  1.76E-08,  avg # of iterations =  1.5

     total cpu time spent up to now is     1139.7 secs

     total energy              =   -7993.84406089 Ry
     Harris-Foulkes estimate   =   -7993.84381446 Ry
     estimated scf accuracy    <       0.00005304 Ry

     total magnetization       =    50.46 Bohr mag/cell
     absolute magnetization    =    53.69 Bohr mag/cell

     iteration # 27     ecut=    54.00 Ry     beta= 0.10
     Davidson diagonalization with overlap
     ethr =  1.27E-08,  avg # of iterations =  2.0

     total cpu time spent up to now is     1182.2 secs

     total energy              =   -7993.84430443 Ry
     Harris-Foulkes estimate   =   -7993.84406655 Ry
     estimated scf accuracy    <       0.00003805 Ry

     total magnetization       =    50.44 Bohr mag/cell
     absolute magnetization    =    53.66 Bohr mag/cell

     iteration # 28     ecut=    54.00 Ry     beta= 0.10
     Davidson diagonalization with overlap
     ethr =  9.15E-09,  avg # of iterations =  2.0

     total cpu time spent up to now is     1224.0 secs

     total energy              =   -7993.84449658 Ry
     Harris-Foulkes estimate   =   -7993.84431160 Ry
     estimated scf accuracy    <       0.00002194 Ry

     total magnetization       =    50.40 Bohr mag/cell
     absolute magnetization    =    53.61 Bohr mag/cell

     iteration # 29     ecut=    54.00 Ry     beta= 0.10
     Davidson diagonalization with overlap
     ethr =  5.27E-09,  avg # of iterations =  2.8

     total cpu time spent up to now is     1271.1 secs

     total energy              =   -7993.84469757 Ry
     Harris-Foulkes estimate   =   -7993.84450041 Ry
     estimated scf accuracy    <       0.00001074 Ry

     total magnetization       =    50.38 Bohr mag/cell
     absolute magnetization    =    53.58 Bohr mag/cell

     iteration # 30     ecut=    54.00 Ry     beta= 0.10
     Davidson diagonalization with overlap
     ethr =  2.58E-09,  avg # of iterations =  1.5

     total cpu time spent up to now is     1309.6 secs

     total energy              =   -7993.84484590 Ry
     Harris-Foulkes estimate   =   -7993.84469828 Ry
     estimated scf accuracy    <       0.00000811 Ry

     total magnetization       =    50.37 Bohr mag/cell
     absolute magnetization    =    53.57 Bohr mag/cell

     iteration # 31     ecut=    54.00 Ry     beta= 0.10
     Davidson diagonalization with overlap
     ethr =  1.95E-09,  avg # of iterations =  1.2

     total cpu time spent up to now is     1347.0 secs

     total energy              =   -7993.84497102 Ry
     Harris-Foulkes estimate   =   -7993.84484640 Ry
     estimated scf accuracy    <       0.00000604 Ry

     total magnetization       =    50.36 Bohr mag/cell
     absolute magnetization    =    53.56 Bohr mag/cell

     iteration # 32     ecut=    54.00 Ry     beta= 0.10
     Davidson diagonalization with overlap
     ethr =  1.45E-09,  avg # of iterations =  1.1

     total cpu time spent up to now is     1384.0 secs

     total energy              =   -7993.84507241 Ry
     Harris-Foulkes estimate   =   -7993.84497142 Ry
     estimated scf accuracy    <       0.00000555 Ry

     total magnetization       =    50.35 Bohr mag/cell
     absolute magnetization    =    53.56 Bohr mag/cell

     iteration # 33     ecut=    54.00 Ry     beta= 0.10
     Davidson diagonalization with overlap
     ethr =  1.33E-09,  avg # of iterations =  1.1

     total cpu time spent up to now is     1421.1 secs

     total energy              =   -7993.84515232 Ry
     Harris-Foulkes estimate   =   -7993.84507267 Ry
     estimated scf accuracy    <       0.00000324 Ry

     total magnetization       =    50.35 Bohr mag/cell
     absolute magnetization    =    53.56 Bohr mag/cell

     iteration # 34     ecut=    54.00 Ry     beta= 0.10
     Davidson diagonalization with overlap
     ethr =  7.78E-10,  avg # of iterations =  1.7

     total cpu time spent up to now is     1460.9 secs

     total energy              =   -7993.84521663 Ry
     Harris-Foulkes estimate   =   -7993.84515259 Ry
     estimated scf accuracy    <       0.00000230 Ry

     total magnetization       =    50.34 Bohr mag/cell
     absolute magnetization    =    53.56 Bohr mag/cell

     iteration # 35     ecut=    54.00 Ry     beta= 0.10
     Davidson diagonalization with overlap
     ethr =  5.54E-10,  avg # of iterations =  2.0

     total cpu time spent up to now is     1501.7 secs

     total energy              =   -7993.84527001 Ry
     Harris-Foulkes estimate   =   -7993.84521687 Ry
     estimated scf accuracy    <       0.00000153 Ry

     total magnetization       =    50.34 Bohr mag/cell
     absolute magnetization    =    53.56 Bohr mag/cell

     iteration # 36     ecut=    54.00 Ry     beta= 0.10
     Davidson diagonalization with overlap
     ethr =  3.67E-10,  avg # of iterations =  2.1

     total cpu time spent up to now is     1543.8 secs

     total energy              =   -7993.84531143 Ry
     Harris-Foulkes estimate   =   -7993.84527016 Ry
     estimated scf accuracy    <       0.00000102 Ry

     total magnetization       =    50.34 Bohr mag/cell
     absolute magnetization    =    53.56 Bohr mag/cell

     iteration # 37     ecut=    54.00 Ry     beta= 0.10
     Davidson diagonalization with overlap
     ethr =  2.45E-10,  avg # of iterations =  3.0

     total cpu time spent up to now is     1593.5 secs

     total energy              =   -7993.84534529 Ry
     Harris-Foulkes estimate   =   -7993.84531163 Ry
     estimated scf accuracy    <       0.00000059 Ry

     total magnetization       =    50.34 Bohr mag/cell
     absolute magnetization    =    53.56 Bohr mag/cell

     iteration # 38     ecut=    54.00 Ry     beta= 0.10
     Davidson diagonalization with overlap
     ethr =  1.42E-10,  avg # of iterations =  1.8

     total cpu time spent up to now is     1633.2 secs

     total energy              =   -7993.84537264 Ry
     Harris-Foulkes estimate   =   -7993.84534532 Ry
     estimated scf accuracy    <       0.00000045 Ry

     total magnetization       =    50.34 Bohr mag/cell
     absolute magnetization    =    53.56 Bohr mag/cell

     iteration # 39     ecut=    54.00 Ry     beta= 0.10
     Davidson diagonalization with overlap
     ethr =  1.07E-10,  avg # of iterations =  1.1

     total cpu time spent up to now is     1670.2 secs

     total energy              =   -7993.84539555 Ry
     Harris-Foulkes estimate   =   -7993.84537266 Ry
     estimated scf accuracy    <       0.00000035 Ry

     total magnetization       =    50.34 Bohr mag/cell
     absolute magnetization    =    53.56 Bohr mag/cell

     iteration # 40     ecut=    54.00 Ry     beta= 0.10
     Davidson diagonalization with overlap
     ethr =  8.39E-11,  avg # of iterations =  1.9

     total cpu time spent up to now is     1712.7 secs

     total energy              =   -7993.84541344 Ry
     Harris-Foulkes estimate   =   -7993.84539559 Ry
     estimated scf accuracy    <       0.00000028 Ry

     total magnetization       =    50.34 Bohr mag/cell
     absolute magnetization    =    53.56 Bohr mag/cell

     iteration # 41     ecut=    54.00 Ry     beta= 0.10
     Davidson diagonalization with overlap
     ethr =  6.73E-11,  avg # of iterations =  1.7

     total cpu time spent up to now is     1752.3 secs

     total energy              =   -7993.84542794 Ry
     Harris-Foulkes estimate   =   -7993.84541347 Ry
     estimated scf accuracy    <       0.00000019 Ry

     total magnetization       =    50.34 Bohr mag/cell
     absolute magnetization    =    53.56 Bohr mag/cell

     iteration # 42     ecut=    54.00 Ry     beta= 0.10
     Davidson diagonalization with overlap
     ethr =  4.47E-11,  avg # of iterations =  1.7

     total cpu time spent up to now is     1793.1 secs

     total energy              =   -7993.84543941 Ry
     Harris-Foulkes estimate   =   -7993.84542795 Ry
     estimated scf accuracy    <       0.00000015 Ry

     total magnetization       =    50.34 Bohr mag/cell
     absolute magnetization    =    53.56 Bohr mag/cell

     iteration # 43     ecut=    54.00 Ry     beta= 0.10
     Davidson diagonalization with overlap
     ethr =  3.62E-11,  avg # of iterations =  1.3

     total cpu time spent up to now is     1830.7 secs

     total energy              =   -7993.84544858 Ry
     Harris-Foulkes estimate   =   -7993.84543942 Ry
     estimated scf accuracy    <       0.00000009 Ry

     total magnetization       =    50.34 Bohr mag/cell
     absolute magnetization    =    53.57 Bohr mag/cell

     iteration # 44     ecut=    54.00 Ry     beta= 0.10
     Davidson diagonalization with overlap
     ethr =  2.07E-11,  avg # of iterations =  1.9

     total cpu time spent up to now is     1871.0 secs

     total energy              =   -7993.84545592 Ry
     Harris-Foulkes estimate   =   -7993.84544859 Ry
     estimated scf accuracy    <       0.00000006 Ry

     total magnetization       =    50.34 Bohr mag/cell
     absolute magnetization    =    53.57 Bohr mag/cell

     iteration # 45     ecut=    54.00 Ry     beta= 0.10
     Davidson diagonalization with overlap
     ethr =  1.38E-11,  avg # of iterations =  1.5

     total cpu time spent up to now is     1909.3 secs

     total energy              =   -7993.84546177 Ry
     Harris-Foulkes estimate   =   -7993.84545592 Ry
     estimated scf accuracy    <       0.00000004 Ry

     total magnetization       =    50.34 Bohr mag/cell
     absolute magnetization    =    53.57 Bohr mag/cell

     iteration # 46     ecut=    54.00 Ry     beta= 0.10
     Davidson diagonalization with overlap
     ethr =  8.60E-12,  avg # of iterations =  2.3

     total cpu time spent up to now is     1952.0 secs

     total energy              =   -7993.84546643 Ry
     Harris-Foulkes estimate   =   -7993.84546177 Ry
     estimated scf accuracy    <       0.00000003 Ry

     total magnetization       =    50.34 Bohr mag/cell
     absolute magnetization    =    53.57 Bohr mag/cell

     iteration # 47     ecut=    54.00 Ry     beta= 0.10
     Davidson diagonalization with overlap
     ethr =  6.15E-12,  avg # of iterations =  1.0

     total cpu time spent up to now is     1988.7 secs

     total energy              =   -7993.84547019 Ry
     Harris-Foulkes estimate   =   -7993.84546643 Ry
     estimated scf accuracy    <       0.00000002 Ry

     total magnetization       =    50.34 Bohr mag/cell
     absolute magnetization    =    53.57 Bohr mag/cell

     iteration # 48     ecut=    54.00 Ry     beta= 0.10
     Davidson diagonalization with overlap
     ethr =  3.85E-12,  avg # of iterations =  1.3
 
     Magnetic moment per site:
     atom:    1    charge:    2.0739    magn:   -0.0553    constr:    0.0000
     atom:    2    charge:   14.4284    magn:    2.1470    constr:    0.0000
     atom:    3    charge:    2.0913    magn:   -0.0254    constr:    0.0000
     atom:    4    charge:    2.0913    magn:   -0.0254    constr:    0.0000
     atom:    5    charge:   14.4092    magn:    2.2353    constr:    0.0000
     atom:    6    charge:   14.4092    magn:    2.2353    constr:    0.0000
     atom:    7    charge:    2.0815    magn:   -0.0313    constr:    0.0000
     atom:    8    charge:    2.0815    magn:   -0.0313    constr:    0.0000
     atom:    9    charge:   14.4731    magn:    1.9700    constr:    0.0000
     atom:   10    charge:   14.4731    magn:    1.9700    constr:    0.0000
     atom:   11    charge:   14.4127    magn:    2.2295    constr:    0.0000
     atom:   12    charge:   14.4127    magn:    2.2295    constr:    0.0000
     atom:   13    charge:   14.3873    magn:    2.3590    constr:    0.0000
     atom:   14    charge:   14.3974    magn:    2.4110    constr:    0.0000
     atom:   15    charge:   14.4417    magn:    2.1090    constr:    0.0000
     atom:   16    charge:   14.4417    magn:    2.1090    constr:    0.0000
     atom:   17    charge:    2.0739    magn:   -0.0553    constr:    0.0000
     atom:   18    charge:   14.4284    magn:    2.1470    constr:    0.0000
     atom:   19    charge:   14.3858    magn:    2.3814    constr:    0.0000
     atom:   20    charge:   14.3858    magn:    2.3814    constr:    0.0000
     atom:   21    charge:    2.0815    magn:   -0.0313    constr:    0.0000
     atom:   22    charge:    2.0815    magn:   -0.0313    constr:    0.0000
     atom:   23    charge:   14.4092    magn:    2.2353    constr:    0.0000
     atom:   24    charge:   14.4092    magn:    2.2353    constr:    0.0000
     atom:   25    charge:   14.4127    magn:    2.2295    constr:    0.0000
     atom:   26    charge:   14.4127    magn:    2.2295    constr:    0.0000
     atom:   27    charge:   14.4731    magn:    1.9700    constr:    0.0000
     atom:   28    charge:   14.4731    magn:    1.9700    constr:    0.0000
     atom:   29    charge:   14.4918    magn:    1.9046    constr:    0.0000
     atom:   30    charge:   14.5151    magn:    1.5091    constr:    0.0000
     atom:   31    charge:   14.4417    magn:    2.1090    constr:    0.0000
     atom:   32    charge:   14.4417    magn:    2.1090    constr:    0.0000

     total cpu time spent up to now is     2026.6 secs

     End of self-consistent calculation

 ------ SPIN UP ------------


          k = 0.0000 0.0000 0.0000 ( 16353 PWs)   bands (ev):

   -70.6245 -70.6192 -70.6125 -70.6125 -70.5701 -70.5582 -70.5582 -70.5582
   -70.5523 -70.5400 -70.5261 -70.5157 -70.4877 -70.4742 -70.4742 -70.4737
   -70.4567 -70.4352 -70.4329 -70.4248 -70.4248 -70.4128 -70.4036 -70.2963
   -36.8006 -36.8006 -36.7906 -36.7906 -36.7895 -36.7716 -36.7716 -36.7687
   -36.7538 -36.7494 -36.7455 -36.7336 -36.7336 -36.7255 -36.7255 -36.6833
   -36.6799 -36.6722 -36.6722 -36.6623 -36.6530 -36.6406 -36.6406 -36.6266
   -36.6266 -36.6234 -36.6157 -36.6088 -36.6088 -36.5967 -36.5917 -36.5773
   -36.5686 -36.5686 -36.5430 -36.5430 -36.5328 -36.5305 -36.5255 -36.5255
   -36.5230 -36.5184 -36.5184 -36.5010 -36.4826 -36.4824 -36.4824 -36.4719
   -36.4719 -36.4690 -36.4639 -36.4628 -36.4582 -36.4537 -36.4331 -36.4327
   -36.4327 -36.4252 -36.4131 -36.4001 -36.4001 -36.3837 -36.3808 -36.3808
   -36.3774 -36.3642 -36.3642 -36.3616 -36.3521 -36.3521 -36.3271 -36.3271
     4.2579   5.9715   7.3923   7.4276   7.7034   7.7034   9.1734   9.9029
    10.8099  11.1856  11.2613  11.4839  11.4839  11.9079  12.1449  12.1449
    12.4353  12.5555  12.5555  12.5560  12.5628  12.6063  12.6063  12.6210
    12.7066  12.8044  12.8524  12.9301  12.9832  13.0872  13.0965  13.2768
    13.3447  13.3447  13.4389  13.4389  13.6306  13.6455  13.6756  13.7287
    13.8485  13.9495  13.9927  13.9927  14.0694  14.0694  14.1645  14.1645
    14.2726  14.2969  14.3096  14.3096  14.4555  14.4626  14.4626  14.5146
    14.5338  14.5338  14.5344  14.6058  14.6058  14.6783  14.6874  14.7216
    14.7216  14.7467  14.8091  14.8277  15.1309  15.1560  15.1560  15.2169
    15.2169  15.2719  15.2719  15.2902  15.3615  15.3867  15.5398  15.5398
    15.6686  15.6686  15.6770  15.6901  15.7170  15.7170  15.8490  15.8624
    15.8927  15.9115  15.9815  15.9815  16.0700  16.0718  16.0718  16.1038
    16.1174  16.1386  16.2132  16.2132  16.2147  16.2564  16.3331  16.3399
    16.3399  16.3650  16.3999  16.4027  16.4303  16.4548  16.5170  16.5170
    16.5218  16.5496  16.5609  16.6255  16.6475  16.6601  16.6954  16.7136
    16.7253  16.7310  16.7785  16.7785  16.9942  16.9942  17.0001  17.0114
    17.0137  17.0199  17.0199  17.1341  17.1341  17.1607  17.2528  17.5903
    17.5938  17.6393  17.6393  17.6491  17.7410  17.9101  17.9101  18.0849
    18.3117  18.4266  18.4266  19.2434  19.2434  19.3251  19.4688  19.8124
    19.9849  19.9849

          k = 0.0000 0.0000 0.2000 ( 16335 PWs)   bands (ev):

   -70.6234 -70.6187 -70.6136 -70.6131 -70.5685 -70.5584 -70.5583 -70.5582
   -70.5524 -70.5401 -70.5259 -70.5175 -70.4896 -70.4749 -70.4730 -70.4708
   -70.4572 -70.4357 -70.4332 -70.4244 -70.4228 -70.4129 -70.4048 -70.2963
   -36.8002 -36.7962 -36.7892 -36.7881 -36.7844 -36.7721 -36.7719 -36.7617
   -36.7572 -36.7460 -36.7420 -36.7277 -36.7261 -36.7207 -36.7204 -36.6967
   -36.6861 -36.6852 -36.6709 -36.6603 -36.6531 -36.6496 -36.6425 -36.6352
   -36.6298 -36.6261 -36.6131 -36.6110 -36.6002 -36.5933 -36.5875 -36.5825
   -36.5729 -36.5663 -36.5519 -36.5495 -36.5375 -36.5344 -36.5312 -36.5266
   -36.5200 -36.5174 -36.5136 -36.5013 -36.4869 -36.4855 -36.4817 -36.4813
   -36.4720 -36.4678 -36.4567 -36.4509 -36.4476 -36.4429 -36.4376 -36.4325
   -36.4255 -36.4172 -36.4170 -36.4004 -36.3956 -36.3837 -36.3835 -36.3804
   -36.3743 -36.3687 -36.3685 -36.3642 -36.3537 -36.3529 -36.3293 -36.3287
     4.4248   6.0894   6.6259   7.4825   7.6537   8.3909   9.1541  10.0731
    10.6648  10.7599  11.0897  11.2787  11.7113  11.7618  11.8958  11.9643
    12.2169  12.3747  12.4723  12.4924  12.5772  12.6471  12.7290  12.8361
    12.8527  12.8906  12.9415  12.9992  13.0349  13.1485  13.2360  13.2731
    13.4242  13.4553  13.5394  13.5972  13.7208  13.7458  13.7730  13.8845
    13.8958  13.9416  13.9974  14.0426  14.1080  14.1086  14.1522  14.1940
    14.2309  14.2715  14.3049  14.3145  14.3631  14.3637  14.3819  14.4561
    14.4868  14.5311  14.5410  14.5879  14.6097  14.6165  14.6848  14.7375
    14.8035  14.8146  14.8320  14.9084  14.9433  15.1090  15.1496  15.1858
    15.1892  15.2583  15.2814  15.3324  15.3409  15.4215  15.4245  15.5010
    15.5233  15.5804  15.5824  15.6387  15.6590  15.7205  15.7765  15.8081
    15.8428  15.8976  15.9429  15.9826  16.0166  16.0425  16.0530  16.1249
    16.1453  16.1750  16.1861  16.2146  16.2427  16.2606  16.2745  16.2989
    16.3147  16.3531  16.3611  16.4065  16.4366  16.4594  16.4684  16.4857
    16.5258  16.5542  16.5781  16.6119  16.6266  16.6307  16.6733  16.7261
    16.7409  16.7695  16.7962  16.8352  16.8374  16.8732  16.8902  16.9049
    16.9528  17.0055  17.1080  17.1186  17.2153  17.2579  17.3697  17.4028
    17.4340  17.6153  17.6437  17.8654  18.0764  18.1983  18.3263  18.5060
    18.5802  18.6294  18.8106  19.0443  19.0770  19.5050  19.6598  19.8329
    20.1373  20.2477

          k = 0.0000 0.0000 0.4000 ( 16329 PWs)   bands (ev):

   -70.6211 -70.6171 -70.6158 -70.6147 -70.5645 -70.5597 -70.5583 -70.5581
   -70.5527 -70.5403 -70.5264 -70.5201 -70.4916 -70.4755 -70.4724 -70.4655
   -70.4597 -70.4364 -70.4338 -70.4238 -70.4190 -70.4130 -70.4076 -70.2963
   -36.7998 -36.7870 -36.7859 -36.7834 -36.7760 -36.7758 -36.7714 -36.7610
   -36.7451 -36.7386 -36.7317 -36.7179 -36.7154 -36.7136 -36.7083 -36.7062
   -36.6999 -36.6995 -36.6819 -36.6752 -36.6694 -36.6573 -36.6462 -36.6377
   -36.6337 -36.6274 -36.6172 -36.6138 -36.5956 -36.5873 -36.5862 -36.5707
   -36.5683 -36.5640 -36.5623 -36.5612 -36.5548 -36.5416 -36.5347 -36.5284
   -36.5170 -36.5140 -36.5118 -36.4954 -36.4951 -36.4907 -36.4871 -36.4832
   -36.4784 -36.4662 -36.4540 -36.4407 -36.4378 -36.4301 -36.4229 -36.4199
   -36.4182 -36.4129 -36.4054 -36.4047 -36.3924 -36.3897 -36.3856 -36.3835
   -36.3801 -36.3734 -36.3725 -36.3654 -36.3599 -36.3543 -36.3316 -36.3316
     4.8967   5.7246   6.3461   7.4635   7.6421   9.1125   9.1550  10.1689
    10.3533  10.4126  10.8683  11.0968  11.3948  11.5821  11.6794  11.9082
    12.0759  12.2488  12.3087  12.3987  12.4329  12.8109  12.9465  12.9851
    13.0616  13.0781  13.0789  13.1834  13.1999  13.3271  13.3597  13.3863
    13.5002  13.5273  13.5432  13.6482  13.7450  13.8123  13.8531  13.9401
    13.9679  14.0004  14.0528  14.0528  14.1215  14.1515  14.1761  14.1995
    14.2134  14.2280  14.2349  14.2803  14.3510  14.3821  14.4402  14.4642
    14.5529  14.5555  14.5729  14.5897  14.6124  14.6389  14.6753  14.7006
    14.7323  14.7681  14.8428  14.8504  14.8812  14.9286  14.9956  15.0599
    15.0805  15.1286  15.1409  15.1587  15.2088  15.2534  15.3254  15.3639
    15.3797  15.4789  15.5701  15.6062  15.6255  15.6451  15.7319  15.7972
    15.8869  15.9327  15.9535  16.0252  16.0548  16.0560  16.0977  16.1218
    16.1404  16.1410  16.1687  16.1873  16.2342  16.2767  16.3106  16.3349
    16.3459  16.3856  16.3906  16.4158  16.4272  16.4371  16.4407  16.4638
    16.4836  16.5656  16.5719  16.5969  16.6194  16.6420  16.6657  16.7333
    16.7464  16.7489  16.7670  16.8154  16.8160  16.8750  16.8992  16.9173
    17.0375  17.0668  17.2233  17.2346  17.2937  17.3884  17.4850  17.5462
    17.5911  17.7972  17.8066  17.9049  17.9876  18.1341  18.3939  18.5618
    18.8150  19.0642  19.3646  19.4259  19.5992  19.7023  19.8708  19.9723
    20.1529  20.4722

          k = 0.0000 0.2000 0.2000 ( 16378 PWs)   bands (ev):

   -70.6226 -70.6182 -70.6146 -70.6136 -70.5671 -70.5597 -70.5583 -70.5571
   -70.5527 -70.5403 -70.5259 -70.5189 -70.4920 -70.4747 -70.4707 -70.4704
   -70.4582 -70.4358 -70.4338 -70.4230 -70.4223 -70.4129 -70.4059 -70.2963
   -36.7971 -36.7957 -36.7877 -36.7869 -36.7794 -36.7745 -36.7701 -36.7573
   -36.7567 -36.7421 -36.7402 -36.7254 -36.7223 -36.7130 -36.7119 -36.6984
   -36.6947 -36.6940 -36.6712 -36.6636 -36.6543 -36.6526 -36.6497 -36.6290
   -36.6271 -36.6271 -36.6144 -36.6109 -36.6027 -36.6003 -36.5863 -36.5834
   -36.5717 -36.5686 -36.5598 -36.5525 -36.5445 -36.5384 -36.5359 -36.5326
   -36.5303 -36.5133 -36.5116 -36.4941 -36.4870 -36.4837 -36.4771 -36.4733
   -36.4713 -36.4637 -36.4586 -36.4509 -36.4470 -36.4455 -36.4328 -36.4317
   -36.4184 -36.4160 -36.4142 -36.3986 -36.3931 -36.3835 -36.3821 -36.3816
   -36.3777 -36.3728 -36.3675 -36.3659 -36.3576 -36.3528 -36.3316 -36.3276
     4.5887   6.1998   6.5202   7.0222   7.9425   8.5931   9.0068  10.0755
    10.5480  10.7717  10.8410  11.1058  11.4646  11.7341  11.9360  12.1317
    12.2044  12.2284  12.3703  12.5008  12.6222  12.6531  12.7576  12.8592
    12.8828  12.9115  12.9846  13.1117  13.1968  13.3042  13.3396  13.3790
    13.4133  13.5085  13.5477  13.6114  13.7840  13.7863  13.8211  13.9036
    13.9772  14.0215  14.0449  14.0859  14.1303  14.1567  14.1699  14.1832
    14.2213  14.2821  14.2940  14.2964  14.3197  14.3673  14.4197  14.4228
    14.4428  14.5303  14.5349  14.6205  14.6381  14.6583  14.6841  14.7363
    14.7622  14.7623  14.8116  14.8193  14.9259  15.0391  15.0703  15.0882
    15.1445  15.1907  15.2228  15.2646  15.2875  15.3231  15.4385  15.4393
    15.4564  15.4804  15.4835  15.5491  15.6415  15.6657  15.7220  15.7822
    15.8519  15.8613  15.9969  16.0065  16.0190  16.0334  16.0456  16.0572
    16.1572  16.1620  16.2535  16.2537  16.2631  16.2924  16.3193  16.3454
    16.3660  16.3700  16.3779  16.3910  16.4202  16.4362  16.4428  16.4747
    16.4753  16.5430  16.5976  16.6074  16.6165  16.6454  16.6619  16.6811
    16.6977  16.7141  16.7704  16.7970  16.8445  16.8609  16.9142  16.9503
    16.9619  17.0280  17.1585  17.2122  17.2430  17.2673  17.2857  17.3407
    17.5597  17.6826  17.8262  17.8331  18.1327  18.2793  18.4101  18.4890
    18.6560  18.6931  18.9131  19.1851  19.5653  19.7466  19.7557  20.0528
    20.1793  20.2986

          k = 0.0000 0.2000 0.4000 ( 16364 PWs)   bands (ev):

   -70.6207 -70.6173 -70.6162 -70.6147 -70.5639 -70.5609 -70.5581 -70.5567
   -70.5531 -70.5405 -70.5256 -70.5211 -70.4947 -70.4751 -70.4701 -70.4658
   -70.4604 -70.4361 -70.4344 -70.4223 -70.4193 -70.4128 -70.4085 -70.2963
   -36.7970 -36.7890 -36.7844 -36.7824 -36.7770 -36.7750 -36.7692 -36.7572
   -36.7462 -36.7351 -36.7303 -36.7250 -36.7158 -36.7119 -36.7066 -36.6976
   -36.6911 -36.6880 -36.6833 -36.6787 -36.6702 -36.6545 -36.6438 -36.6379
   -36.6353 -36.6260 -36.6162 -36.6111 -36.6023 -36.5980 -36.5898 -36.5793
   -36.5758 -36.5729 -36.5642 -36.5598 -36.5552 -36.5494 -36.5376 -36.5358
   -36.5301 -36.5154 -36.5105 -36.4951 -36.4875 -36.4825 -36.4772 -36.4717
   -36.4677 -36.4661 -36.4526 -36.4478 -36.4412 -36.4355 -36.4277 -36.4246
   -36.4140 -36.4103 -36.4097 -36.3954 -36.3951 -36.3892 -36.3853 -36.3815
   -36.3788 -36.3754 -36.3693 -36.3687 -36.3605 -36.3540 -36.3318 -36.3296
     5.0510   5.8297   6.4309   7.0116   8.0192   8.6906   9.0566   9.6811
    10.4141  10.7291  10.9422  11.1973  11.2597  11.4662  11.7430  12.0307
    12.0671  12.0976  12.2574  12.4546  12.6058  12.6432  12.8625  13.0591
    13.0982  13.1518  13.2016  13.2193  13.3210  13.3853  13.4610  13.5016
    13.5390  13.5437  13.5982  13.6743  13.7541  13.8362  13.9030  13.9566
    13.9632  14.0617  14.0822  14.1016  14.1638  14.1801  14.1904  14.2204
    14.2413  14.2462  14.2708  14.3227  14.3266  14.3928  14.4437  14.4751
    14.4911  14.5307  14.5415  14.5735  14.5997  14.6492  14.6650  14.6990
    14.7290  14.7537  14.7942  14.8196  14.8363  14.8592  14.8923  14.9343
    14.9521  14.9908  15.0374  15.0699  15.0957  15.1570  15.2416  15.2538
    15.3605  15.3827  15.4690  15.5490  15.5999  15.6985  15.7530  15.8145
    15.8788  15.9123  15.9493  16.0351  16.0518  16.0959  16.1080  16.1394
    16.1543  16.1871  16.2107  16.2548  16.2713  16.2900  16.3147  16.3315
    16.3652  16.4053  16.4163  16.4288  16.4351  16.4523  16.4659  16.4925
    16.5038  16.5773  16.5907  16.6023  16.6244  16.6474  16.6625  16.6862
    16.6991  16.7458  16.7565  16.8440  16.8855  16.9400  16.9873  17.0173
    17.1086  17.1431  17.1729  17.2703  17.2843  17.3278  17.4000  17.5100
    17.5739  17.6239  17.6395  17.9815  18.0603  18.3240  18.6402  18.7346
    18.9098  18.9885  19.1316  19.1820  19.5438  19.7784  20.0036  20.1023
    20.3483  20.4404

          k = 0.0000 0.4000 0.4000 ( 16350 PWs)   bands (ev):

   -70.6194 -70.6176 -70.6172 -70.6146 -70.5628 -70.5619 -70.5571 -70.5554
   -70.5541 -70.5407 -70.5240 -70.5228 -70.4992 -70.4745 -70.4664 -70.4659
   -70.4621 -70.4357 -70.4350 -70.4198 -70.4196 -70.4124 -70.4100 -70.2963
   -36.7901 -36.7900 -36.7852 -36.7804 -36.7800 -36.7752 -36.7621 -36.7483
   -36.7467 -36.7378 -36.7289 -36.7281 -36.7212 -36.7011 -36.6960 -36.6959
   -36.6847 -36.6810 -36.6733 -36.6722 -36.6685 -36.6499 -36.6490 -36.6400
   -36.6331 -36.6299 -36.6139 -36.6116 -36.6095 -36.6002 -36.5958 -36.5918
   -36.5908 -36.5838 -36.5743 -36.5679 -36.5667 -36.5485 -36.5423 -36.5400
   -36.5385 -36.5118 -36.5093 -36.4921 -36.4823 -36.4783 -36.4773 -36.4689
   -36.4659 -36.4537 -36.4510 -36.4470 -36.4426 -36.4350 -36.4277 -36.4268
   -36.4116 -36.4090 -36.4079 -36.3969 -36.3916 -36.3911 -36.3902 -36.3797
   -36.3793 -36.3753 -36.3731 -36.3685 -36.3572 -36.3550 -36.3299 -36.3284
     5.4771   5.9488   6.4631   6.5727   8.1830   8.5082   8.7312   9.2517
    10.3868  10.7547  10.8338  11.2904  11.5149  11.5414  11.7460  11.8621
    12.0187  12.0485  12.3666  12.4615  12.5643  12.6052  12.7066  13.1016
    13.1618  13.2984  13.3534  13.3988  13.4630  13.4715  13.4918  13.5733
    13.6590  13.7140  13.7496  13.8245  13.8795  13.9371  13.9931  14.0505
    14.0557  14.0983  14.1349  14.1660  14.1669  14.2160  14.2185  14.2203
    14.2477  14.2750  14.2753  14.3075  14.3149  14.3165  14.3596  14.3962
    14.3994  14.4348  14.4782  14.4991  14.5166  14.5722  14.5887  14.6044
    14.6319  14.6699  14.7071  14.7090  14.7603  14.7638  14.7651  14.7950
    14.8256  14.8268  14.8599  14.8970  14.9593  15.0261  15.1635  15.2084
    15.2452  15.4051  15.4220  15.5269  15.6252  15.6428  15.7706  15.8471
    15.8697  15.9434  15.9618  16.0390  16.0778  16.1543  16.1724  16.2160
    16.2181  16.2579  16.2657  16.2998  16.3349  16.3707  16.3950  16.4010
    16.4113  16.4150  16.4374  16.4527  16.4593  16.4860  16.5256  16.5289
    16.5415  16.5578  16.5632  16.5921  16.6093  16.6212  16.6524  16.6799
    16.7023  16.7611  16.7789  16.8162  16.8788  16.9129  16.9802  17.0691
    17.1268  17.1593  17.1875  17.2949  17.3553  17.4212  17.4559  17.6800
    17.7687  17.8496  17.9159  17.9793  18.0275  18.2074  18.4630  18.5466
    18.8008  18.8631  19.0117  19.3748  19.3786  19.8599  20.1462  20.2241
    20.3617  20.4106

          k = 0.1000 0.0000 0.0000 ( 16382 PWs)   bands (ev):

   -70.6244 -70.6194 -70.6125 -70.6125 -70.5699 -70.5590 -70.5583 -70.5581
   -70.5519 -70.5400 -70.5260 -70.5157 -70.4877 -70.4743 -70.4743 -70.4738
   -70.4566 -70.4353 -70.4328 -70.4248 -70.4248 -70.4129 -70.4037 -70.2963
   -36.8006 -36.8006 -36.7900 -36.7900 -36.7887 -36.7729 -36.7729 -36.7688
   -36.7591 -36.7454 -36.7447 -36.7336 -36.7336 -36.7239 -36.7239 -36.6835
   -36.6799 -36.6739 -36.6739 -36.6632 -36.6513 -36.6409 -36.6409 -36.6251
   -36.6251 -36.6234 -36.6194 -36.6087 -36.6087 -36.5934 -36.5921 -36.5771
   -36.5698 -36.5698 -36.5421 -36.5421 -36.5328 -36.5309 -36.5256 -36.5256
   -36.5230 -36.5184 -36.5184 -36.4999 -36.4842 -36.4824 -36.4824 -36.4719
   -36.4719 -36.4691 -36.4640 -36.4628 -36.4582 -36.4536 -36.4331 -36.4328
   -36.4328 -36.4269 -36.4103 -36.4001 -36.4001 -36.3837 -36.3808 -36.3808
   -36.3782 -36.3642 -36.3642 -36.3616 -36.3520 -36.3520 -36.3271 -36.3271
     4.2598   5.9541   7.4277   7.4417   7.7036   7.7036   9.0814   9.9801
    10.7156  11.2535  11.2546  11.4665  11.4665  11.9792  12.1506  12.1506
    12.3351  12.5488  12.5633  12.5633  12.5929  12.6500  12.6502  12.6502
    12.7800  12.7978  12.8610  12.8924  12.8974  12.9624  13.3090  13.3191
    13.3191  13.3437  13.4255  13.4255  13.5394  13.5680  13.6692  13.8206
    13.8405  13.9946  13.9946  14.0085  14.0719  14.0719  14.1447  14.1447
    14.2687  14.3075  14.3231  14.3231  14.4409  14.4409  14.4608  14.4736
    14.5154  14.5232  14.5232  14.5674  14.6470  14.6470  14.6603  14.7168
    14.7458  14.7458  14.8474  15.0224  15.0325  15.0798  15.0798  15.2373
    15.2373  15.2783  15.2783  15.2929  15.3662  15.3915  15.5295  15.5295
    15.6478  15.6682  15.6682  15.7218  15.7422  15.7422  15.7492  15.8429
    15.8670  15.9395  15.9395  15.9866  16.0329  16.0566  16.0566  16.1252
    16.1288  16.1458  16.2052  16.2167  16.2167  16.2901  16.3294  16.3494
    16.3494  16.3724  16.3977  16.4036  16.4237  16.4601  16.5108  16.5167
    16.5167  16.5314  16.5573  16.6368  16.6443  16.6616  16.6921  16.6954
    16.7136  16.8105  16.8105  16.8108  16.9723  16.9723  17.0092  17.0175
    17.0175  17.0332  17.0370  17.1774  17.2457  17.2457  17.2571  17.5744
    17.5955  17.6360  17.6360  17.6424  17.7400  17.8506  17.9109  17.9109
    18.2619  18.2619  18.5216  19.2608  19.3759  19.3759  19.5265  19.8456
    19.9676  20.0396

          k = 0.1000 0.0000 0.2000 ( 16394 PWs)   bands (ev):

   -70.6234 -70.6188 -70.6136 -70.6132 -70.5683 -70.5590 -70.5584 -70.5582
   -70.5522 -70.5401 -70.5261 -70.5175 -70.4897 -70.4750 -70.4731 -70.4708
   -70.4574 -70.4358 -70.4333 -70.4245 -70.4228 -70.4130 -70.4049 -70.2964
   -36.8000 -36.7965 -36.7884 -36.7876 -36.7840 -36.7729 -36.7727 -36.7616
   -36.7588 -36.7447 -36.7426 -36.7277 -36.7263 -36.7195 -36.7186 -36.6967
   -36.6903 -36.6802 -36.6718 -36.6620 -36.6526 -36.6501 -36.6431 -36.6380
   -36.6308 -36.6238 -36.6118 -36.6099 -36.5985 -36.5935 -36.5882 -36.5832
   -36.5724 -36.5670 -36.5515 -36.5496 -36.5376 -36.5346 -36.5312 -36.5268
   -36.5199 -36.5177 -36.5133 -36.5010 -36.4889 -36.4862 -36.4824 -36.4787
   -36.4719 -36.4678 -36.4567 -36.4510 -36.4473 -36.4429 -36.4375 -36.4327
   -36.4256 -36.4184 -36.4145 -36.4017 -36.3954 -36.3837 -36.3835 -36.3804
   -36.3745 -36.3686 -36.3685 -36.3642 -36.3539 -36.3525 -36.3293 -36.3288
     4.4266   6.0733   6.6276   7.5207   7.6530   8.4005   9.0888  10.0851
    10.6470  10.8017  11.0696  11.2925  11.6501  11.7722  11.9411  11.9764
    12.2333  12.3644  12.4145  12.4869  12.5814  12.6761  12.7780  12.8427
    12.8828  12.9161  12.9296  12.9954  13.0652  13.1143  13.1949  13.3505
    13.3792  13.4137  13.5331  13.6030  13.7103  13.7345  13.7858  13.8708
    13.8974  13.9426  14.0148  14.0454  14.0955  14.1315  14.1680  14.1980
    14.2473  14.2492  14.3002  14.3276  14.3709  14.3744  14.4040  14.4503
    14.4682  14.5212  14.5400  14.5694  14.5806  14.6023  14.6614  14.7082
    14.7481  14.8338  14.8490  14.9160  15.0241  15.1171  15.1246  15.1607
    15.1925  15.2373  15.2992  15.3111  15.3401  15.4251  15.4305  15.4785
    15.5012  15.5528  15.5952  15.6667  15.6829  15.7223  15.7322  15.8046
    15.8279  15.8810  15.9198  15.9902  16.0261  16.0447  16.0673  16.1215
    16.1338  16.1761  16.1972  16.2146  16.2445  16.2540  16.2814  16.3179
    16.3401  16.3615  16.3779  16.4120  16.4201  16.4536  16.4653  16.4800
    16.5259  16.5320  16.5871  16.6093  16.6207  16.6512  16.6749  16.7065
    16.7148  16.7447  16.7874  16.8241  16.8572  16.8831  16.8927  16.9321
    17.0217  17.0639  17.1589  17.1731  17.2399  17.2885  17.3988  17.4281
    17.4516  17.6135  17.6444  17.8586  17.9577  18.0715  18.2301  18.4128
    18.5530  18.6356  18.8512  19.0551  19.3340  19.5102  19.5876  19.9083
    19.9709  20.2079

          k = 0.1000 0.0000 0.4000 ( 16352 PWs)   bands (ev):

   -70.6211 -70.6172 -70.6158 -70.6148 -70.5645 -70.5597 -70.5585 -70.5582
   -70.5528 -70.5403 -70.5264 -70.5202 -70.4916 -70.4756 -70.4725 -70.4655
   -70.4597 -70.4364 -70.4338 -70.4238 -70.4190 -70.4130 -70.4076 -70.2963
   -36.7996 -36.7876 -36.7854 -36.7835 -36.7762 -36.7755 -36.7715 -36.7609
   -36.7443 -36.7385 -36.7336 -36.7181 -36.7157 -36.7118 -36.7084 -36.7059
   -36.7014 -36.6980 -36.6816 -36.6758 -36.6707 -36.6569 -36.6467 -36.6389
   -36.6306 -36.6265 -36.6180 -36.6135 -36.5958 -36.5880 -36.5873 -36.5710
   -36.5691 -36.5633 -36.5619 -36.5609 -36.5548 -36.5413 -36.5348 -36.5287
   -36.5166 -36.5146 -36.5117 -36.4965 -36.4948 -36.4908 -36.4858 -36.4832
   -36.4785 -36.4658 -36.4539 -36.4407 -36.4378 -36.4298 -36.4227 -36.4200
   -36.4181 -36.4135 -36.4066 -36.4046 -36.3923 -36.3897 -36.3849 -36.3835
   -36.3802 -36.3733 -36.3726 -36.3655 -36.3595 -36.3547 -36.3316 -36.3316
     4.8985   5.7255   6.3331   7.4596   7.6706   9.0910   9.1498  10.1983
    10.2493  10.5827  10.8686  11.0818  11.3385  11.4194  11.7233  11.9597
    12.0813  12.2038  12.2362  12.4520  12.5784  12.7870  12.9299  13.0015
    13.0863  13.0911  13.1192  13.1985  13.2286  13.3067  13.3247  13.3995
    13.4523  13.5187  13.6020  13.6482  13.7437  13.8180  13.8475  13.9209
    13.9533  13.9798  14.0152  14.0336  14.0941  14.1242  14.1785  14.1853
    14.2186  14.2569  14.2745  14.2951  14.3540  14.3909  14.4407  14.4631
    14.5158  14.5338  14.5520  14.5923  14.6137  14.6385  14.6738  14.6955
    14.7607  14.7916  14.8322  14.8560  14.8984  14.9632  15.0118  15.0719
    15.0757  15.0959  15.1227  15.1738  15.1995  15.2129  15.2859  15.3247
    15.3577  15.4997  15.5491  15.6287  15.6451  15.6522  15.7311  15.8343
    15.8806  15.9078  15.9931  15.9987  16.0437  16.0728  16.0935  16.1069
    16.1437  16.1493  16.1903  16.2155  16.2424  16.2704  16.2929  16.3205
    16.3469  16.3665  16.3899  16.4122  16.4281  16.4387  16.4467  16.4836
    16.5012  16.5429  16.5683  16.6137  16.6284  16.6330  16.6893  16.7075
    16.7237  16.7707  16.7817  16.7991  16.8054  16.8790  16.9001  17.0432
    17.1072  17.1460  17.2315  17.2609  17.3043  17.4020  17.4507  17.5131
    17.6072  17.7411  17.8033  17.8672  17.9711  18.1900  18.4216  18.5410
    18.6347  18.8208  19.2617  19.3963  19.5765  19.7820  19.9141  20.1260
    20.2518  20.4027

          k = 0.1000 0.2000 0.2000 ( 16363 PWs)   bands (ev):

   -70.6226 -70.6183 -70.6145 -70.6135 -70.5668 -70.5596 -70.5588 -70.5570
   -70.5526 -70.5402 -70.5259 -70.5188 -70.4920 -70.4748 -70.4707 -70.4704
   -70.4582 -70.4359 -70.4338 -70.4229 -70.4223 -70.4130 -70.4059 -70.2963
   -36.7970 -36.7960 -36.7874 -36.7863 -36.7790 -36.7750 -36.7706 -36.7584
   -36.7565 -36.7414 -36.7412 -36.7252 -36.7217 -36.7125 -36.7112 -36.7023
   -36.6931 -36.6902 -36.6716 -36.6654 -36.6547 -36.6530 -36.6499 -36.6342
   -36.6283 -36.6218 -36.6118 -36.6110 -36.6013 -36.6002 -36.5875 -36.5837
   -36.5721 -36.5686 -36.5591 -36.5524 -36.5451 -36.5384 -36.5370 -36.5326
   -36.5300 -36.5132 -36.5115 -36.4942 -36.4870 -36.4831 -36.4773 -36.4733
   -36.4713 -36.4636 -36.4586 -36.4508 -36.4470 -36.4455 -36.4328 -36.4320
   -36.4184 -36.4151 -36.4141 -36.3987 -36.3940 -36.3838 -36.3821 -36.3816
   -36.3775 -36.3728 -36.3675 -36.3659 -36.3574 -36.3527 -36.3316 -36.3276
     4.5904   6.1849   6.5205   7.0325   7.9762   8.5920   8.9662  10.0647
    10.5542  10.7576  10.8157  11.1511  11.5019  11.7596  11.9169  12.1151
    12.1722  12.2094  12.3901  12.5131  12.6174  12.6406  12.7243  12.8992
    12.9265  12.9640  13.0073  13.0846  13.1874  13.2451  13.3217  13.3441
    13.4147  13.5335  13.6054  13.6197  13.7423  13.7865  13.8336  13.8581
    13.9812  14.0375  14.0587  14.0618  14.1380  14.1660  14.1923  14.2010
    14.2230  14.2894  14.3027  14.3140  14.3242  14.4000  14.4152  14.4197
    14.4449  14.5202  14.5232  14.5636  14.6103  14.6428  14.6795  14.6965
    14.7298  14.7377  14.8325  14.8722  14.9424  15.0426  15.0438  15.0871
    15.1566  15.1796  15.2074  15.2449  15.2865  15.3294  15.3765  15.4348
    15.4640  15.4824  15.5599  15.6014  15.6154  15.6500  15.7029  15.8004
    15.8335  15.8400  15.9726  16.0063  16.0422  16.0496  16.0606  16.0644
    16.1360  16.1952  16.2299  16.2362  16.2641  16.2913  16.3247  16.3444
    16.3506  16.3567  16.3677  16.3858  16.4279  16.4340  16.4453  16.4925
    16.5097  16.5417  16.5857  16.5919  16.6267  16.6488  16.6841  16.6948
    16.7138  16.7427  16.7471  16.8234  16.8562  16.8868  16.8887  16.9392
    17.0114  17.0622  17.1355  17.2156  17.2529  17.2660  17.3180  17.4015
    17.5871  17.6348  17.7521  17.8292  18.0936  18.3043  18.4007  18.4761
    18.6550  18.7095  18.9335  19.2251  19.3687  19.6927  19.8064  19.9930
    20.1352  20.4306

          k = 0.1000 0.2000 0.4000 ( 16331 PWs)   bands (ev):

   -70.6206 -70.6172 -70.6162 -70.6147 -70.5638 -70.5608 -70.5582 -70.5567
   -70.5531 -70.5404 -70.5256 -70.5211 -70.4947 -70.4750 -70.4701 -70.4657
   -70.4603 -70.4361 -70.4343 -70.4223 -70.4193 -70.4128 -70.4083 -70.2963
   -36.7968 -36.7891 -36.7843 -36.7823 -36.7772 -36.7751 -36.7690 -36.7575
   -36.7455 -36.7351 -36.7319 -36.7243 -36.7155 -36.7122 -36.7063 -36.6977
   -36.6914 -36.6873 -36.6834 -36.6791 -36.6699 -36.6543 -36.6459 -36.6385
   -36.6317 -36.6256 -36.6158 -36.6111 -36.6024 -36.5999 -36.5902 -36.5792
   -36.5757 -36.5728 -36.5648 -36.5596 -36.5553 -36.5492 -36.5376 -36.5355
   -36.5298 -36.5154 -36.5104 -36.4950 -36.4878 -36.4817 -36.4773 -36.4723
   -36.4677 -36.4657 -36.4525 -36.4479 -36.4409 -36.4356 -36.4277 -36.4251
   -36.4144 -36.4103 -36.4094 -36.3958 -36.3948 -36.3893 -36.3852 -36.3815
   -36.3788 -36.3753 -36.3693 -36.3687 -36.3603 -36.3541 -36.3318 -36.3296
     5.0527   5.8306   6.4189   7.0169   8.0362   8.6748   9.0541   9.7014
    10.4429  10.6998  10.8771  11.1539  11.4118  11.4781  11.6641  11.9350
    12.0597  12.1796  12.2796  12.4328  12.6038  12.6579  12.8662  13.0449
    13.1117  13.1565  13.2260  13.2632  13.3255  13.3714  13.4501  13.4890
    13.5321  13.5659  13.6299  13.6726  13.7340  13.8202  13.8985  13.9345
    13.9723  14.0486  14.0739  14.0936  14.1570  14.1631  14.2022  14.2190
    14.2486  14.2538  14.2891  14.3015  14.3554  14.3792  14.4399  14.4670
    14.4798  14.5197  14.5637  14.5859  14.6138  14.6396  14.6549  14.6768
    14.7224  14.7519  14.7832  14.8087  14.8452  14.8620  14.8906  14.9341
    14.9567  14.9985  15.0313  15.0711  15.0963  15.1242  15.2114  15.2827
    15.3315  15.3842  15.4814  15.5462  15.6448  15.7122  15.7728  15.8252
    15.8891  15.9218  15.9447  16.0194  16.0530  16.0873  16.1246  16.1429
    16.1600  16.1937  16.2173  16.2549  16.2678  16.2841  16.3175  16.3379
    16.3528  16.3867  16.4083  16.4325  16.4473  16.4645  16.4847  16.5066
    16.5194  16.5494  16.5847  16.6001  16.6292  16.6438  16.6584  16.6847
    16.7117  16.7329  16.7899  16.8067  16.8506  16.9289  16.9557  17.0134
    17.1221  17.1449  17.2109  17.2326  17.2907  17.3751  17.4434  17.4993
    17.6050  17.6723  17.8174  17.9275  18.0032  18.3108  18.5112  18.6782
    18.8563  18.9537  19.1129  19.2703  19.6111  19.7569  19.8178  20.1192
    20.2897  20.5167

          k = 0.1000 0.4000 0.4000 ( 16366 PWs)   bands (ev):

   -70.6194 -70.6177 -70.6172 -70.6146 -70.5627 -70.5620 -70.5570 -70.5554
   -70.5541 -70.5407 -70.5240 -70.5228 -70.4992 -70.4745 -70.4664 -70.4660
   -70.4621 -70.4357 -70.4350 -70.4199 -70.4196 -70.4124 -70.4100 -70.2963
   -36.7901 -36.7900 -36.7849 -36.7808 -36.7803 -36.7749 -36.7614 -36.7492
   -36.7460 -36.7370 -36.7301 -36.7282 -36.7223 -36.7010 -36.6963 -36.6960
   -36.6845 -36.6809 -36.6723 -36.6713 -36.6676 -36.6497 -36.6493 -36.6408
   -36.6333 -36.6291 -36.6164 -36.6127 -36.6089 -36.6003 -36.5975 -36.5912
   -36.5884 -36.5828 -36.5763 -36.5681 -36.5651 -36.5484 -36.5429 -36.5399
   -36.5383 -36.5116 -36.5091 -36.4923 -36.4824 -36.4786 -36.4776 -36.4689
   -36.4659 -36.4537 -36.4509 -36.4470 -36.4426 -36.4347 -36.4277 -36.4266
   -36.4120 -36.4090 -36.4079 -36.3968 -36.3915 -36.3912 -36.3902 -36.3796
   -36.3793 -36.3753 -36.3731 -36.3685 -36.3572 -36.3549 -36.3299 -36.3284
     5.4786   5.9490   6.4667   6.5650   8.1700   8.5183   8.7247   9.2788
    10.3783  10.7966  10.8860  11.0952  11.5169  11.6930  11.8080  11.8615
    11.9456  11.9749  12.3188  12.5054  12.5117  12.6534  12.6775  13.1089
    13.1438  13.3402  13.3734  13.4228  13.4675  13.5063  13.5209  13.5617
    13.6772  13.7185  13.7390  13.8227  13.8881  13.9334  13.9444  14.0268
    14.0448  14.1143  14.1149  14.1494  14.1617  14.1700  14.2145  14.2269
    14.2379  14.2736  14.2841  14.3045  14.3242  14.3364  14.3540  14.3803
    14.4204  14.4362  14.4742  14.4906  14.5288  14.5331  14.5632  14.5920
    14.6273  14.6711  14.6914  14.7154  14.7491  14.7528  14.7739  14.7882
    14.8547  14.8735  14.8865  14.9504  15.0026  15.0252  15.1419  15.2249
    15.2266  15.3941  15.3944  15.5318  15.6113  15.7244  15.7830  15.8443
    15.8786  15.9422  15.9560  16.0161  16.0495  16.1471  16.1532  16.2363
    16.2430  16.2552  16.2595  16.2748  16.3427  16.3584  16.3599  16.4008
    16.4119  16.4147  16.4337  16.4411  16.4560  16.4749  16.5207  16.5355
    16.5488  16.5608  16.5754  16.5891  16.6131  16.6343  16.6564  16.6990
    16.7188  16.7634  16.7845  16.8728  16.8771  16.9255  16.9738  17.0061
    17.0905  17.1333  17.2194  17.2197  17.3455  17.4042  17.5530  17.6560
    17.7425  17.8411  17.9469  18.0512  18.1702  18.2365  18.3221  18.6982
    18.8203  18.9370  19.0590  19.2774  19.3624  19.6570  20.0689  20.0784
    20.2579  20.4532

          k = 0.2000 0.0000 0.0000 ( 16358 PWs)   bands (ev):

   -70.6242 -70.6196 -70.6125 -70.6125 -70.5696 -70.5600 -70.5582 -70.5581
   -70.5513 -70.5399 -70.5260 -70.5156 -70.4877 -70.4742 -70.4742 -70.4738
   -70.4564 -70.4353 -70.4327 -70.4248 -70.4248 -70.4129 -70.4035 -70.2963
   -36.8006 -36.8006 -36.7888 -36.7888 -36.7872 -36.7751 -36.7751 -36.7689
   -36.7640 -36.7452 -36.7409 -36.7336 -36.7336 -36.7212 -36.7212 -36.6837
   -36.6801 -36.6768 -36.6768 -36.6642 -36.6486 -36.6412 -36.6412 -36.6242
   -36.6232 -36.6229 -36.6229 -36.6085 -36.6085 -36.5931 -36.5889 -36.5767
   -36.5718 -36.5718 -36.5409 -36.5409 -36.5328 -36.5317 -36.5258 -36.5258
   -36.5228 -36.5184 -36.5184 -36.4975 -36.4875 -36.4824 -36.4824 -36.4719
   -36.4719 -36.4692 -36.4640 -36.4628 -36.4582 -36.4534 -36.4331 -36.4329
   -36.4329 -36.4287 -36.4064 -36.4001 -36.4001 -36.3838 -36.3808 -36.3808
   -36.3795 -36.3642 -36.3642 -36.3616 -36.3518 -36.3518 -36.3272 -36.3272
     4.2629   5.9272   7.4279   7.5268   7.7039   7.7039   8.9445  10.1112
    10.5611  11.2411  11.3701  11.4405  11.4405  12.0164  12.1573  12.1573
    12.3382  12.5273  12.5718  12.5718  12.6091  12.6671  12.7188  12.7390
    12.7390  12.7514  12.7741  12.8618  13.0113  13.0754  13.2654  13.2654
    13.3322  13.3361  13.4018  13.4018  13.4711  13.5655  13.6511  13.8075
    14.0074  14.0074  14.0180  14.0652  14.0652  14.0716  14.1151  14.1151
    14.2471  14.2596  14.3151  14.3583  14.3583  14.4045  14.4045  14.4632
    14.5177  14.5177  14.5414  14.5710  14.6000  14.6723  14.6723  14.7241
    14.8209  14.8209  14.8365  14.9160  14.9744  14.9744  15.2554  15.2554
    15.2684  15.2798  15.2798  15.3260  15.3704  15.4082  15.5107  15.5107
    15.5166  15.5854  15.6795  15.6795  15.7422  15.7422  15.8067  15.8265
    15.8751  15.9099  15.9099  15.9679  16.0004  16.0004  16.0004  16.1171
    16.1470  16.2165  16.2306  16.2369  16.2369  16.2930  16.3214  16.3533
    16.3692  16.3692  16.3887  16.3952  16.4562  16.4682  16.4864  16.5189
    16.5423  16.5472  16.5472  16.6072  16.6566  16.6767  16.6954  16.7057
    16.7136  16.8246  16.8246  16.8975  16.9347  16.9347  17.0166  17.0299
    17.0299  17.0709  17.0949  17.1686  17.3095  17.4656  17.4656  17.5134
    17.5965  17.6190  17.6346  17.6406  17.6406  17.7369  17.9121  17.9121
    17.9798  17.9798  18.7439  19.1246  19.5444  19.5444  19.6438  19.7843
    19.9048  20.1454

          k = 0.2000 0.0000 0.2000 ( 16419 PWs)   bands (ev):

   -70.6233 -70.6190 -70.6136 -70.6132 -70.5679 -70.5598 -70.5585 -70.5582
   -70.5518 -70.5402 -70.5262 -70.5175 -70.4898 -70.4751 -70.4731 -70.4709
   -70.4574 -70.4358 -70.4334 -70.4245 -70.4228 -70.4130 -70.4048 -70.2964
   -36.7998 -36.7970 -36.7872 -36.7867 -36.7833 -36.7745 -36.7740 -36.7624
   -36.7603 -36.7447 -36.7420 -36.7278 -36.7266 -36.7170 -36.7162 -36.6967
   -36.6932 -36.6753 -36.6729 -36.6658 -36.6515 -36.6506 -36.6443 -36.6420
   -36.6315 -36.6213 -36.6101 -36.6081 -36.5951 -36.5937 -36.5896 -36.5845
   -36.5715 -36.5683 -36.5507 -36.5500 -36.5379 -36.5349 -36.5313 -36.5271
   -36.5195 -36.5182 -36.5130 -36.5004 -36.4919 -36.4863 -36.4824 -36.4770
   -36.4717 -36.4677 -36.4567 -36.4511 -36.4469 -36.4428 -36.4374 -36.4331
   -36.4257 -36.4188 -36.4108 -36.4047 -36.3952 -36.3837 -36.3836 -36.3804
   -36.3748 -36.3685 -36.3684 -36.3642 -36.3540 -36.3520 -36.3293 -36.3289
     4.4295   6.0484   6.6300   7.5843   7.6520   8.4213   8.9799  10.0985
    10.6348  10.8584  11.0302  11.3299  11.5773  11.7850  11.9414  12.0608
    12.1745  12.3392  12.4142  12.4928  12.6083  12.7001  12.7968  12.8612
    12.9027  12.9354  12.9734  13.0120  13.1000  13.1108  13.1968  13.2692
    13.3773  13.4034  13.4800  13.5803  13.6874  13.7465  13.7648  13.8183
    13.9535  13.9896  14.0120  14.0988  14.1403  14.1622  14.1826  14.2116
    14.2388  14.2667  14.2814  14.3164  14.3418  14.3816  14.4140  14.4186
    14.4438  14.4734  14.4936  14.5357  14.5593  14.5712  14.6863  14.7063
    14.7561  14.8326  14.8549  14.9183  15.0116  15.1055  15.1493  15.1612
    15.1871  15.2246  15.2747  15.3420  15.3657  15.3988  15.4382  15.4892
    15.5065  15.5482  15.6019  15.6252  15.6666  15.6951  15.7345  15.7847
    15.7951  15.8371  15.9156  16.0027  16.0174  16.0494  16.0851  16.1111
    16.1357  16.1981  16.2118  16.2334  16.2452  16.2576  16.2654  16.3192
    16.3541  16.3762  16.4039  16.4110  16.4317  16.4382  16.4590  16.4899
    16.5167  16.5269  16.5846  16.6186  16.6199  16.6458  16.6521  16.6901
    16.7196  16.7332  16.7625  16.8168  16.8562  16.8646  16.9201  17.0237
    17.0992  17.1348  17.1917  17.2536  17.3556  17.4027  17.4530  17.5057
    17.5339  17.5900  17.6329  17.7478  17.8111  17.8655  17.9294  18.3277
    18.5322  18.7932  18.9312  19.1942  19.4065  19.4178  19.5713  19.7648
    20.0346  20.2049

          k = 0.2000 0.0000 0.4000 ( 16376 PWs)   bands (ev):

   -70.6211 -70.6171 -70.6159 -70.6149 -70.5643 -70.5595 -70.5590 -70.5583
   -70.5526 -70.5403 -70.5265 -70.5202 -70.4917 -70.4756 -70.4725 -70.4656
   -70.4597 -70.4364 -70.4339 -70.4238 -70.4190 -70.4130 -70.4077 -70.2963
   -36.7992 -36.7883 -36.7849 -36.7836 -36.7762 -36.7756 -36.7716 -36.7609
   -36.7419 -36.7388 -36.7373 -36.7180 -36.7161 -36.7098 -36.7079 -36.7053
   -36.7010 -36.6988 -36.6809 -36.6769 -36.6724 -36.6561 -36.6477 -36.6387
   -36.6296 -36.6243 -36.6167 -36.6141 -36.5960 -36.5914 -36.5872 -36.5717
   -36.5696 -36.5630 -36.5613 -36.5600 -36.5545 -36.5409 -36.5348 -36.5291
   -36.5162 -36.5154 -36.5118 -36.4978 -36.4943 -36.4908 -36.4842 -36.4830
   -36.4786 -36.4652 -36.4539 -36.4407 -36.4378 -36.4295 -36.4219 -36.4205
   -36.4179 -36.4149 -36.4081 -36.4046 -36.3922 -36.3898 -36.3837 -36.3836
   -36.3802 -36.3731 -36.3728 -36.3655 -36.3584 -36.3557 -36.3316 -36.3316
     4.9013   5.7271   6.3128   7.4533   7.7179   9.0352   9.1651  10.1201
    10.3369  10.7598  10.8953  11.0498  11.1178  11.3835  11.6321  12.0491
    12.0770  12.1551  12.2000  12.6040  12.6813  12.7721  12.8964  13.0277
    13.1268  13.1339  13.1518  13.2159  13.2281  13.2682  13.3066  13.4034
    13.4609  13.5006  13.5942  13.6663  13.7110  13.8368  13.8707  13.9121
    13.9174  13.9674  13.9779  14.0196  14.0618  14.0988  14.1417  14.1578
    14.1980  14.2600  14.3106  14.3369  14.3920  14.4120  14.4373  14.4645
    14.4721  14.4956  14.5314  14.5437  14.6060  14.6555  14.6866  14.7425
    14.7904  14.8060  14.8360  14.8635  14.8918  14.9842  15.0351  15.0596
    15.0773  15.0989  15.1235  15.1540  15.1779  15.1968  15.2223  15.2948
    15.3160  15.4893  15.5293  15.6426  15.6773  15.6862  15.7129  15.8422
    15.8869  15.9250  15.9507  15.9953  16.0519  16.0815  16.1031  16.1363
    16.1680  16.1809  16.2059  16.2248  16.2334  16.2432  16.2803  16.3048
    16.3300  16.3623  16.3774  16.4045  16.4253  16.4585  16.4771  16.5053
    16.5114  16.5328  16.5537  16.5939  16.6119  16.6423  16.6647  16.6798
    16.7178  16.7417  16.7718  16.8090  16.8945  16.9489  17.0286  17.0894
    17.2005  17.2301  17.2901  17.3278  17.3643  17.3685  17.4598  17.5620
    17.6057  17.6721  17.7106  17.8457  17.9591  18.0725  18.2320  18.3976
    18.6095  18.8656  19.1486  19.2827  19.3710  19.6916  20.0793  20.2475
    20.3127  20.4369

          k = 0.2000 0.2000 0.2000 ( 16371 PWs)   bands (ev):

   -70.6225 -70.6183 -70.6146 -70.6135 -70.5665 -70.5596 -70.5594 -70.5571
   -70.5522 -70.5402 -70.5259 -70.5189 -70.4920 -70.4747 -70.4707 -70.4704
   -70.4582 -70.4359 -70.4337 -70.4230 -70.4223 -70.4130 -70.4060 -70.2963
   -36.7969 -36.7964 -36.7870 -36.7853 -36.7782 -36.7757 -36.7715 -36.7600
   -36.7561 -36.7428 -36.7405 -36.7250 -36.7209 -36.7108 -36.7100 -36.7066
   -36.6914 -36.6849 -36.6724 -36.6692 -36.6555 -36.6536 -36.6501 -36.6375
   -36.6300 -36.6175 -36.6112 -36.6078 -36.5999 -36.5994 -36.5893 -36.5847
   -36.5728 -36.5687 -36.5581 -36.5522 -36.5461 -36.5389 -36.5383 -36.5325
   -36.5296 -36.5130 -36.5115 -36.4944 -36.4871 -36.4821 -36.4779 -36.4733
   -36.4712 -36.4635 -36.4587 -36.4507 -36.4469 -36.4455 -36.4328 -36.4323
   -36.4184 -36.4143 -36.4130 -36.3987 -36.3957 -36.3841 -36.3821 -36.3816
   -36.3772 -36.3728 -36.3675 -36.3658 -36.3571 -36.3526 -36.3316 -36.3277
     4.5933   6.1618   6.5209   7.0478   8.0372   8.5902   8.8951  10.0455
    10.5569  10.7368  10.7990  11.2227  11.5624  11.7252  11.9407  12.0898
    12.1630  12.2178  12.3821  12.4231  12.5931  12.7019  12.7327  12.9259
    13.0075  13.0085  13.0650  13.0747  13.1188  13.2232  13.2596  13.3306
    13.4262  13.4887  13.6054  13.7053  13.7140  13.7722  13.7906  13.8721
    14.0105  14.0371  14.0373  14.1185  14.1387  14.1628  14.1890  14.2426
    14.2706  14.2909  14.2941  14.3261  14.3761  14.3984  14.4029  14.4193
    14.4290  14.4607  14.4970  14.5465  14.5781  14.5945  14.6543  14.6655
    14.6945  14.7426  14.8402  14.9104  14.9376  15.0008  15.0332  15.0940
    15.1454  15.1866  15.2370  15.2514  15.3098  15.3225  15.3875  15.3953
    15.4640  15.4809  15.5472  15.5835  15.6098  15.6997  15.7110  15.7826
    15.8040  15.8563  15.9176  16.0123  16.0413  16.0443  16.0877  16.1122
    16.1278  16.2071  16.2147  16.2411  16.2590  16.2963  16.3109  16.3297
    16.3431  16.3454  16.3591  16.3734  16.4125  16.4386  16.4474  16.5122
    16.5304  16.5511  16.5887  16.6062  16.6330  16.6508  16.6673  16.7153
    16.7418  16.7535  16.7722  16.8293  16.8644  16.8763  16.9715  16.9938
    17.0080  17.1299  17.1648  17.2176  17.2235  17.2828  17.3664  17.4947
    17.5141  17.6262  17.6916  17.8184  17.9165  18.3250  18.3553  18.5415
    18.7366  18.7426  19.0292  19.1295  19.2547  19.5991  19.6719  19.9415
    20.1674  20.3687

          k = 0.2000 0.2000 0.4000 ( 16343 PWs)   bands (ev):

   -70.6206 -70.6172 -70.6162 -70.6148 -70.5636 -70.5608 -70.5586 -70.5567
   -70.5530 -70.5404 -70.5256 -70.5211 -70.4947 -70.4750 -70.4701 -70.4658
   -70.4604 -70.4361 -70.4343 -70.4223 -70.4193 -70.4128 -70.4084 -70.2963
   -36.7965 -36.7894 -36.7842 -36.7821 -36.7775 -36.7754 -36.7685 -36.7580
   -36.7439 -36.7351 -36.7346 -36.7230 -36.7156 -36.7127 -36.7060 -36.6972
   -36.6919 -36.6873 -36.6833 -36.6791 -36.6696 -36.6537 -36.6486 -36.6383
   -36.6293 -36.6233 -36.6147 -36.6112 -36.6043 -36.6022 -36.5909 -36.5794
   -36.5751 -36.5735 -36.5643 -36.5604 -36.5555 -36.5486 -36.5376 -36.5350
   -36.5294 -36.5156 -36.5103 -36.4947 -36.4882 -36.4803 -36.4775 -36.4732
   -36.4677 -36.4652 -36.4524 -36.4481 -36.4405 -36.4360 -36.4277 -36.4258
   -36.4149 -36.4103 -36.4091 -36.3961 -36.3945 -36.3895 -36.3850 -36.3813
   -36.3787 -36.3753 -36.3693 -36.3687 -36.3600 -36.3544 -36.3318 -36.3296
     5.0554   5.8319   6.4001   7.0247   8.0653   8.6479   9.0504   9.7411
    10.4356  10.6871  10.8549  11.1378  11.4051  11.5392  11.6481  11.8727
    12.0474  12.1801  12.3110  12.4350  12.5509  12.7048  12.8653  13.0591
    13.1345  13.1789  13.2595  13.2966  13.3160  13.3758  13.4188  13.4806
    13.5650  13.5981  13.6382  13.6701  13.7370  13.7839  13.8567  13.9264
    13.9694  14.0348  14.0754  14.0805  14.1260  14.1396  14.1943  14.2119
    14.2497  14.2780  14.2962  14.3075  14.3747  14.3891  14.4213  14.4442
    14.4980  14.5210  14.5623  14.5807  14.6101  14.6373  14.6512  14.6653
    14.7257  14.7493  14.7772  14.7997  14.8236  14.8901  14.8980  14.9378
    14.9554  14.9871  15.0171  15.0415  15.0902  15.1544  15.1984  15.2567
    15.2988  15.3537  15.5123  15.5895  15.6970  15.7316  15.7736  15.8533
    15.8956  15.9271  15.9537  15.9911  16.0617  16.0925  16.1265  16.1643
    16.1805  16.1945  16.2248  16.2440  16.2743  16.2871  16.3079  16.3402
    16.3644  16.3709  16.3812  16.4199  16.4482  16.4711  16.4888  16.5111
    16.5461  16.5590  16.5837  16.6008  16.6300  16.6431  16.6587  16.6981
    16.7044  16.7401  16.7576  16.8135  16.8394  16.8954  16.9322  17.0141
    17.0343  17.1192  17.2279  17.2926  17.3176  17.4091  17.5119  17.6290
    17.6591  17.7768  17.8761  17.9590  18.0403  18.2466  18.3032  18.4089
    18.7721  18.9817  19.1222  19.2590  19.6044  19.7603  19.8312  20.1916
    20.2820  20.4393

          k = 0.2000 0.4000 0.4000 ( 16311 PWs)   bands (ev):

   -70.6193 -70.6176 -70.6171 -70.6145 -70.5627 -70.5619 -70.5570 -70.5554
   -70.5540 -70.5407 -70.5240 -70.5226 -70.4992 -70.4744 -70.4664 -70.4659
   -70.4621 -70.4356 -70.4350 -70.4198 -70.4196 -70.4124 -70.4100 -70.2963
   -36.7902 -36.7900 -36.7843 -36.7812 -36.7809 -36.7745 -36.7600 -36.7509
   -36.7445 -36.7355 -36.7321 -36.7283 -36.7245 -36.7008 -36.6968 -36.6961
   -36.6842 -36.6805 -36.6707 -36.6699 -36.6665 -36.6497 -36.6493 -36.6422
   -36.6335 -36.6264 -36.6211 -36.6145 -36.6084 -36.6005 -36.5982 -36.5917
   -36.5850 -36.5814 -36.5784 -36.5683 -36.5637 -36.5481 -36.5436 -36.5398
   -36.5381 -36.5109 -36.5090 -36.4925 -36.4826 -36.4791 -36.4779 -36.4688
   -36.4659 -36.4537 -36.4508 -36.4469 -36.4426 -36.4343 -36.4277 -36.4262
   -36.4127 -36.4090 -36.4080 -36.3967 -36.3915 -36.3913 -36.3903 -36.3794
   -36.3792 -36.3753 -36.3731 -36.3685 -36.3573 -36.3549 -36.3299 -36.3284
     5.4811   5.9496   6.4738   6.5513   8.1519   8.5304   8.7145   9.3293
    10.3639  10.7858  10.9921  11.0366  11.4515  11.6405  11.8588  11.8804
    11.9114  12.0477  12.2427  12.4774  12.4858  12.6289  12.6812  13.1148
    13.1389  13.4014  13.4151  13.4809  13.5003  13.5270  13.5439  13.5690
    13.6915  13.7144  13.7328  13.8432  13.8502  13.9060  13.9512  13.9967
    14.0382  14.0526  14.0810  14.1214  14.1216  14.1911  14.2041  14.2310
    14.2418  14.2562  14.2693  14.2988  14.3063  14.3201  14.3707  14.4059
    14.4304  14.4387  14.4642  14.4838  14.5135  14.5360  14.5703  14.5819
    14.6319  14.6557  14.6756  14.6855  14.7346  14.7416  14.7869  14.8183
    14.8597  14.9363  14.9487  15.0144  15.0594  15.0656  15.1020  15.1765
    15.2515  15.3307  15.3660  15.5771  15.6197  15.7944  15.8064  15.8298
    15.9009  15.9419  15.9541  15.9928  15.9957  16.1023  16.1515  16.2204
    16.2251  16.2626  16.2770  16.3138  16.3190  16.3495  16.3694  16.3811
    16.3866  16.3997  16.4340  16.4432  16.4583  16.4925  16.5058  16.5276
    16.5431  16.5508  16.5747  16.5948  16.6331  16.6703  16.6730  16.7036
    16.7055  16.8046  16.8354  16.8356  16.9092  16.9119  16.9898  16.9943
    17.0622  17.1277  17.1542  17.1606  17.2857  17.3831  17.5694  17.7773
    17.7879  17.8245  17.9852  18.0672  18.1963  18.3565  18.5366  18.6849
    18.6881  19.1111  19.1624  19.2543  19.3631  19.4993  19.7477  19.7686
    20.1140  20.4090

 ------ SPIN DOWN ----------


          k = 0.0000 0.0000 0.0000 ( 16353 PWs)   bands (ev):

   -68.5437 -68.3359 -68.3096 -68.3075 -68.3075 -68.2946 -68.0786 -68.0781
   -68.0769 -68.0769 -67.9165 -67.9155 -67.8482 -67.8399 -67.8399 -67.8359
   -67.7944 -67.7885 -67.7885 -67.7858 -67.6985 -67.6955 -67.6877 -67.6741
   -34.7210 -34.6967 -34.6967 -34.5628 -34.5628 -34.5191 -34.5187 -34.5187
   -34.5135 -34.5131 -34.4486 -34.4063 -34.4063 -34.4031 -34.3876 -34.3745
   -34.3745 -34.3251 -34.2896 -34.2896 -34.2844 -34.2844 -34.2404 -34.2212
   -34.2049 -34.2029 -34.1888 -34.1888 -34.1591 -34.1591 -34.1457 -34.1026
   -34.0814 -34.0814 -34.0767 -34.0767 -34.0415 -34.0381 -34.0381 -34.0105
   -33.9961 -33.9885 -33.9862 -33.9862 -33.9572 -33.9509 -33.9509 -33.9250
   -33.9250 -33.9245 -33.9115 -33.9028 -33.8849 -33.8749 -33.8749 -33.8734
   -33.8645 -33.8641 -33.8435 -33.8435 -33.8189 -33.7662 -33.7662 -33.7412
   -33.7290 -33.7290 -33.7095 -33.7067 -33.7067 -33.6960 -33.6871 -33.6871
     4.2637   5.9922   7.4485   7.4715   7.7653   7.7653   9.3079  10.0914
    11.1048  11.3967  11.4742  11.6441  11.6441  12.3604  12.4103  12.4103
    12.9037  12.9037  13.1359  13.3857  13.4054  13.4574  13.5148  13.5148
    13.7658  13.7687  13.9538  14.0230  14.0230  14.1399  14.1601  14.3919
    14.3919  14.4244  14.5662  14.5678  14.6615  14.9237  15.0767  15.0901
    15.0901  15.2616  15.3778  15.3964  15.3964  15.4343  15.5916  15.5961
    15.5961  15.6933  15.7605  15.7605  15.8222  15.8222  15.8524  15.9189
    15.9837  15.9837  16.2153  16.2655  16.2655  16.2997  16.3594  16.3594
    16.5037  16.7294  16.7294  16.8283  16.8440  16.8861  16.8861  16.9536
[...]
    16.6168  16.6288  16.6637  16.6958  16.7609  16.8147  16.8523  16.8813
    16.9164  17.0710  17.1106  17.1783  17.2369  17.3189  17.3805  17.5151
    17.6119  17.6502  17.6967  17.7073  17.8284  17.8399  17.8586  17.9165
    17.9518  17.9902  18.0151  18.0747  18.0983  18.1256  18.2003  18.2376
    18.2733  18.3531  18.3852  18.4385  18.4403  18.5511  18.5692  18.6198
    18.6464  18.6663  18.7096  18.7312  18.8072  18.8168  18.8446  18.8569
    18.8854  18.9236  18.9253  19.0512  19.0793  19.1004  19.1129  19.1196
    19.1841  19.2005  19.2303  19.2627  19.2771  19.3080  19.3392  19.3753
    19.4363  19.4430  19.4720  19.5455  19.5770  19.6023  19.6624  19.7643
    19.9518  20.0286  20.1106  20.1934  20.2415  20.3676  20.4365  20.6110
    20.7740  20.8977

          k = 0.1996 0.0000 0.3982 ( 16376 PWs)   bands (ev):

   -68.7256 -68.5527 -68.5235 -68.5229 -68.5212 -68.5114 -68.2984 -68.2983
   -68.2981 -68.2980 -68.1349 -68.1345 -68.0622 -68.0590 -68.0574 -68.0550
   -68.0028 -68.0010 -67.9979 -67.9966 -67.8915 -67.8893 -67.8859 -67.8824
   -34.8978 -34.8833 -34.8826 -34.7758 -34.7702 -34.7344 -34.7301 -34.7295
   -34.7283 -34.7272 -34.6620 -34.6300 -34.6094 -34.6001 -34.5942 -34.5880
   -34.5824 -34.5445 -34.5086 -34.5082 -34.5048 -34.5028 -34.4386 -34.4353
   -34.4317 -34.4301 -34.3830 -34.3829 -34.3756 -34.3728 -34.3328 -34.3157
   -34.3148 -34.3105 -34.2986 -34.2778 -34.2680 -34.2497 -34.2496 -34.2369
   -34.2255 -34.2035 -34.1853 -34.1758 -34.1703 -34.1649 -34.1642 -34.1584
   -34.1557 -34.1308 -34.1277 -34.1202 -34.1110 -34.1065 -34.1060 -34.0798
   -34.0749 -34.0733 -34.0715 -34.0436 -33.9794 -33.9478 -33.9429 -33.9420
   -33.9383 -33.9357 -33.9259 -33.9247 -33.9223 -33.9129 -33.8995 -33.8978
     4.7935   5.6008   6.1965   7.3288   7.5982   8.9344   9.1090  10.1391
    10.3461  10.7572  10.9488  11.0653  11.2051  11.4859  11.7927  12.2893
    12.3604  12.4496  12.7361  13.0722  13.2516  13.2814  13.4609  13.8023
    13.8871  14.0035  14.0482  14.1945  14.2760  14.3578  14.3691  14.5940
    14.6451  14.6759  14.7694  14.7724  14.8247  15.0171  15.0506  15.0635
    15.0892  15.1016  15.1165  15.2097  15.2297  15.3500  15.4169  15.4570
    15.4821  15.5181  15.5237  15.5636  15.6128  15.6910  15.7271  15.7529
    15.7880  15.8226  15.8573  15.8656  15.8937  15.9458  16.0009  16.0126
    16.0659  16.1154  16.1573  16.2008  16.2681  16.3007  16.3323  16.3605
    16.3848  16.4036  16.4535  16.4831  16.5347  16.5752  16.6834  16.7687
    16.7846  17.0458  17.1483  17.2171  17.2951  17.3193  17.4795  17.6785
    17.7557  17.7873  17.8090  17.8415  17.8873  17.9026  17.9856  18.0150
    18.0510  18.1036  18.1317  18.1611  18.1925  18.2335  18.2466  18.2874
    18.3332  18.3518  18.4082  18.4619  18.4777  18.5181  18.5353  18.5927
    18.6092  18.6573  18.6958  18.7168  18.7293  18.7517  18.8577  18.8643
    18.8755  18.9582  18.9924  19.0126  19.0510  19.0690  19.1187  19.1366
    19.1549  19.1840  19.2334  19.2362  19.2768  19.2860  19.3111  19.3529
    19.3731  19.4510  19.4652  19.5614  19.5806  19.6394  19.6830  19.8415
    19.8899  20.0674  20.2302  20.4369  20.5108  20.6930  20.7153  20.9138
    21.0496  21.1575

          k = 0.1996 0.1991 0.1991 ( 16371 PWs)   bands (ev):

   -68.7256 -68.5525 -68.5239 -68.5228 -68.5215 -68.5111 -68.2989 -68.2982
   -68.2982 -68.2975 -68.1349 -68.1345 -68.0626 -68.0583 -68.0579 -68.0550
   -68.0034 -67.9990 -67.9989 -67.9966 -67.8928 -67.8882 -67.8877 -67.8806
   -34.8976 -34.8834 -34.8830 -34.7741 -34.7733 -34.7322 -34.7322 -34.7291
   -34.7287 -34.7260 -34.6622 -34.6265 -34.6064 -34.6044 -34.5972 -34.5862
   -34.5843 -34.5439 -34.5093 -34.5081 -34.5061 -34.5038 -34.4446 -34.4346
   -34.4273 -34.4250 -34.3938 -34.3867 -34.3742 -34.3710 -34.3430 -34.3166
   -34.3090 -34.3048 -34.2896 -34.2882 -34.2606 -34.2474 -34.2461 -34.2423
   -34.2125 -34.2001 -34.1931 -34.1918 -34.1768 -34.1680 -34.1614 -34.1495
   -34.1446 -34.1352 -34.1347 -34.1173 -34.1095 -34.0949 -34.0890 -34.0854
   -34.0782 -34.0759 -34.0575 -34.0564 -33.9942 -33.9566 -33.9517 -33.9412
   -33.9379 -33.9358 -33.9296 -33.9240 -33.9131 -33.9074 -33.8982 -33.8915
     4.4864   6.0466   6.3899   6.9329   7.9286   8.5270   8.7841  10.0619
    10.5360  10.7616  10.8385  11.3302  11.6285  11.9075  12.1992  12.2958
    12.4109  12.4737  12.7731  12.8714  13.0550  13.3922  13.4327  13.5166
    13.9123  13.9207  14.0344  14.1320  14.1408  14.1984  14.3035  14.3502
    14.3666  14.6585  14.6854  14.7040  14.7223  14.8528  14.8743  14.9891
    14.9925  15.1282  15.1519  15.2075  15.2487  15.3411  15.4961  15.5128
    15.5449  15.5877  15.6577  15.6731  15.6909  15.7305  15.7660  15.7815
    15.7884  15.8311  15.8711  15.8871  15.9145  15.9427  16.0155  16.0190
    16.0558  16.1378  16.1421  16.2644  16.3363  16.3499  16.4296  16.4346
    16.5158  16.5232  16.5703  16.6284  16.6551  16.6818  16.7699  16.8063
    16.8624  16.9562  17.0547  17.1477  17.2144  17.3912  17.4087  17.4317
    17.5276  17.6528  17.7022  17.8352  17.8421  17.9188  17.9593  17.9808
    18.0304  18.0543  18.0738  18.1125  18.1728  18.2046  18.2536  18.2610
    18.3031  18.3625  18.3804  18.4683  18.4949  18.4949  18.5972  18.6027
    18.6447  18.6983  18.7282  18.7637  18.7680  18.8198  18.8272  18.8710
    18.8828  18.9052  19.0006  19.0149  19.0546  19.0800  19.1088  19.1096
    19.1535  19.1689  19.1902  19.1912  19.2691  19.2842  19.3017  19.3060
    19.4139  19.4156  19.4214  19.5394  19.5849  19.6796  19.7742  19.9098
    19.9305  19.9936  20.1105  20.2765  20.3191  20.5039  20.7090  20.7505
    20.8512  20.9691

          k = 0.1996 0.1991 0.3982 ( 16343 PWs)   bands (ev):

   -68.7256 -68.5526 -68.5235 -68.5231 -68.5210 -68.5112 -68.2988 -68.2986
   -68.2977 -68.2975 -68.1348 -68.1345 -68.0615 -68.0588 -68.0574 -68.0555
   -68.0024 -68.0007 -67.9984 -67.9971 -67.8910 -67.8892 -67.8858 -67.8828
   -34.8973 -34.8832 -34.8827 -34.7747 -34.7712 -34.7361 -34.7319 -34.7303
   -34.7270 -34.7255 -34.6637 -34.6308 -34.6053 -34.5982 -34.5929 -34.5869
   -34.5827 -34.5468 -34.5079 -34.5071 -34.5048 -34.5023 -34.4397 -34.4333
   -34.4305 -34.4268 -34.3841 -34.3801 -34.3753 -34.3729 -34.3307 -34.3195
   -34.3167 -34.3084 -34.2916 -34.2784 -34.2607 -34.2528 -34.2479 -34.2422
   -34.2184 -34.2054 -34.1951 -34.1826 -34.1809 -34.1658 -34.1636 -34.1543
   -34.1515 -34.1437 -34.1347 -34.1223 -34.1065 -34.1010 -34.0956 -34.0798
   -34.0779 -34.0767 -34.0661 -34.0490 -33.9776 -33.9500 -33.9459 -33.9415
   -33.9377 -33.9334 -33.9289 -33.9244 -33.9159 -33.9152 -33.8996 -33.8950
     4.9441   5.7012   6.2783   6.8991   7.9502   8.5308   8.9760   9.7049
    10.4435  10.6911  10.9307  11.1977  11.4972  11.6990  11.8608  12.0876
    12.4082  12.5592  12.6926  12.8362  13.0566  13.3024  13.4339  13.7538
    13.9654  14.1287  14.2572  14.3670  14.4058  14.4928  14.5230  14.6205
    14.6885  14.7424  14.8120  14.8457  14.8867  14.9406  15.0339  15.1101
    15.1374  15.1785  15.2261  15.3125  15.3485  15.3910  15.4493  15.4722
    15.4990  15.5528  15.5668  15.6134  15.6484  15.7052  15.7205  15.7397
    15.7912  15.8014  15.8299  15.8388  15.9025  15.9299  15.9510  15.9862
    16.0499  16.0786  16.1218  16.1547  16.1781  16.2062  16.2615  16.2758
    16.3027  16.3271  16.4003  16.4291  16.4613  16.5221  16.5634  16.6209
    16.7330  16.8438  16.9806  17.1158  17.2846  17.3999  17.4284  17.5154
    17.5825  17.6576  17.7108  17.7807  17.8487  17.9575  17.9966  18.0144
    18.0998  18.1642  18.2082  18.2313  18.2884  18.3022  18.3405  18.3621
    18.3901  18.4503  18.4705  18.5022  18.5372  18.5673  18.5948  18.6143
    18.6519  18.6788  18.7009  18.7252  18.7613  18.7883  18.8141  18.8579
    18.8909  18.9367  18.9537  18.9865  19.0373  19.0546  19.0713  19.1062
    19.1208  19.1635  19.1814  19.2168  19.2533  19.2885  19.3043  19.3375
    19.3556  19.3969  19.4645  19.5086  19.6020  19.6607  19.7242  19.8191
    19.9775  20.0230  20.1539  20.3000  20.4943  20.6877  20.8194  20.8294
    21.0498  21.1486

          k = 0.1996 0.3982 0.3982 ( 16311 PWs)   bands (ev):

   -68.7255 -68.5525 -68.5236 -68.5235 -68.5207 -68.5109 -68.2990 -68.2989
   -68.2973 -68.2972 -68.1348 -68.1345 -68.0599 -68.0585 -68.0576 -68.0568
   -68.0013 -67.9998 -67.9997 -67.9984 -67.8900 -67.8893 -67.8852 -67.8837
   -34.8965 -34.8831 -34.8829 -34.7730 -34.7726 -34.7392 -34.7328 -34.7322
   -34.7247 -34.7242 -34.6661 -34.6320 -34.5992 -34.5941 -34.5914 -34.5841
   -34.5839 -34.5514 -34.5073 -34.5061 -34.5041 -34.5009 -34.4385 -34.4357
   -34.4246 -34.4233 -34.3808 -34.3790 -34.3744 -34.3737 -34.3291 -34.3257
   -34.3190 -34.3034 -34.2787 -34.2784 -34.2527 -34.2510 -34.2492 -34.2471
   -34.2215 -34.2024 -34.2021 -34.1918 -34.1911 -34.1767 -34.1632 -34.1528
   -34.1466 -34.1457 -34.1413 -34.1374 -34.0981 -34.0961 -34.0897 -34.0859
   -34.0828 -34.0714 -34.0585 -34.0584 -33.9745 -33.9518 -33.9458 -33.9442
   -33.9421 -33.9337 -33.9236 -33.9216 -33.9184 -33.9123 -33.8967 -33.8942
     5.3593   5.8069   6.3599   6.4187   8.0309   8.4191   8.6330   9.2423
    10.3202  10.8158  11.0518  11.0861  11.6661  11.7508  12.0862  12.1539
    12.2893  12.3940  12.6046  12.8744  13.0560  13.2227  13.3465  13.7762
    13.9592  14.3343  14.3529  14.5455  14.6869  14.7102  14.7760  14.8218
    14.8588  14.9266  15.0143  15.0603  15.0626  15.1068  15.1661  15.1800
    15.2308  15.2756  15.2858  15.3705  15.3754  15.4146  15.4224  15.4632
    15.4979  15.5574  15.6060  15.6129  15.6195  15.6625  15.7129  15.7145
    15.7461  15.7812  15.7893  15.8492  15.8605  15.8731  15.8868  15.9010
    15.9456  15.9823  16.0447  16.1145  16.1158  16.1493  16.1677  16.1974
    16.2163  16.2614  16.2820  16.3277  16.3517  16.3996  16.4206  16.4303
    16.5182  16.6169  16.6742  16.9565  17.0695  17.2654  17.3091  17.5095
    17.5117  17.6134  17.6787  17.7947  17.8438  17.8998  17.9405  18.0298
    18.1831  18.2314  18.2614  18.3479  18.3665  18.4171  18.4379  18.4732
    18.4827  18.5602  18.5631  18.6109  18.6408  18.6434  18.6711  18.6779
    18.7315  18.7377  18.7749  18.7878  18.8258  18.8478  18.8616  18.8684
    18.8885  18.9071  18.9410  18.9445  18.9702  19.0070  19.0284  19.0380
    19.0794  19.1144  19.1323  19.1468  19.1629  19.1734  19.2437  19.2485
    19.3242  19.3775  19.4485  19.4915  19.5164  19.6917  19.7722  19.8068
    19.9852  20.0890  20.2015  20.3527  20.3691  20.5009  20.6546  20.7131
    20.9412  21.2526

     the Fermi energy is    17.4108 ev

!    total energy              =   -7993.86262434 Ry
     Harris-Foulkes estimate   =   -7993.86262217 Ry
     estimated scf accuracy    <          6.3E-09 Ry

     The total energy is the sum of the following terms:

     one-electron contribution =   -3869.86628562 Ry
     hartree contribution      =    2200.74546079 Ry
     xc contribution           =    -887.12085904 Ry
     ewald contribution        =   -3610.03528310 Ry
     one-center paw contrib.   =   -1827.58582218 Ry
     smearing contrib. (-TS)   =       0.00016481 Ry

     total magnetization       =    50.98 Bohr mag/cell
     absolute magnetization    =    54.34 Bohr mag/cell

     convergence has been achieved in  42 iterations

     Forces acting on atoms (cartesian axes, Ry/au):

     atom    1 type  1   force =    -0.04293855    0.00000000   -0.00000000
     atom    2 type  2   force =     0.00754456    0.00000000    0.00000000
     atom    3 type  1   force =     0.00000000    0.00000000    0.00000000
     atom    4 type  1   force =     0.00000000    0.00000000    0.00000000
     atom    5 type  2   force =     0.00106489   -0.00091835   -0.00091835
     atom    6 type  2   force =     0.00106489    0.00091835    0.00091835
     atom    7 type  1   force =    -0.02358255   -0.01583741    0.01583741
     atom    8 type  1   force =    -0.02358255    0.01583741   -0.01583741
     atom    9 type  2   force =     0.01556063   -0.00720973   -0.00720973
     atom   10 type  2   force =     0.01556063    0.00720973    0.00720973
     atom   11 type  2   force =     0.01015577    0.00299563   -0.00299563
     atom   12 type  2   force =     0.01015577   -0.00299563    0.00299563
     atom   13 type  2   force =     0.00000000    0.00000000    0.00000000
     atom   14 type  2   force =     0.00000000    0.00000000    0.00000000
     atom   15 type  2   force =     0.01270473    0.00000000    0.00000000
     atom   16 type  2   force =     0.01270473    0.00000000    0.00000000
     atom   17 type  1   force =     0.04293855    0.00000000   -0.00000000
     atom   18 type  2   force =    -0.00754456    0.00000000    0.00000000
     atom   19 type  2   force =     0.00000000    0.00000000    0.00000000
     atom   20 type  2   force =     0.00000000    0.00000000    0.00000000
     atom   21 type  1   force =     0.02358255   -0.01583741   -0.01583741
     atom   22 type  1   force =     0.02358255    0.01583741    0.01583741
     atom   23 type  2   force =    -0.00106489   -0.00091835    0.00091835
     atom   24 type  2   force =    -0.00106489    0.00091835   -0.00091835
     atom   25 type  2   force =    -0.01015577    0.00299563    0.00299563
     atom   26 type  2   force =    -0.01015577   -0.00299563   -0.00299563
     atom   27 type  2   force =    -0.01556063   -0.00720973    0.00720973
     atom   28 type  2   force =    -0.01556063    0.00720973   -0.00720973
     atom   29 type  2   force =     0.00000000    0.00000000    0.00000000
     atom   30 type  2   force =     0.00000000    0.00000000    0.00000000
     atom   31 type  2   force =    -0.01270473   -0.00000000    0.00000000
     atom   32 type  2   force =    -0.01270473    0.00000000    0.00000000

     Total force =     0.102752     Total SCF correction =     0.000182


     Computing stress (Cartesian axis) and pressure

          total   stress  (Ry/bohr**3)                   (kbar)     P=       -1.44
  -0.00007041   0.00000000   0.00000000          -10.36        0.00        0.00
   0.00000000   0.00002056   0.00000000            0.00        3.02        0.00
   0.00000000   0.00000000   0.00002056            0.00        0.00        3.02


===================================================================================
=   BAD TERMINATION OF ONE OF YOUR APPLICATION PROCESSES
=   RANK 1 PID 33577 RUNNING AT r5c01cn3.hopper
=   KILLED BY SIGNAL: 9 (Killed)
===================================================================================

===================================================================================
=   BAD TERMINATION OF ONE OF YOUR APPLICATION PROCESSES
=   RANK 2 PID 33578 RUNNING AT r5c01cn3.hopper
=   KILLED BY SIGNAL: 9 (Killed)
===================================================================================

===================================================================================
=   BAD TERMINATION OF ONE OF YOUR APPLICATION PROCESSES
=   RANK 3 PID 33579 RUNNING AT r5c01cn3.hopper
=   KILLED BY SIGNAL: 9 (Killed)
===================================================================================

===================================================================================
=   BAD TERMINATION OF ONE OF YOUR APPLICATION PROCESSES
=   RANK 4 PID 33580 RUNNING AT r5c01cn3.hopper
=   KILLED BY SIGNAL: 9 (Killed)
===================================================================================

===================================================================================
=   BAD TERMINATION OF ONE OF YOUR APPLICATION PROCESSES
=   RANK 5 PID 33581 RUNNING AT r5c01cn3.hopper
=   KILLED BY SIGNAL: 9 (Killed)
===================================================================================

===================================================================================
=   BAD TERMINATION OF ONE OF YOUR APPLICATION PROCESSES
=   RANK 6 PID 33582 RUNNING AT r5c01cn3.hopper
=   KILLED BY SIGNAL: 9 (Killed)
===================================================================================

===================================================================================
=   BAD TERMINATION OF ONE OF YOUR APPLICATION PROCESSES
=   RANK 7 PID 33583 RUNNING AT r5c01cn3.hopper
=   KILLED BY SIGNAL: 9 (Killed)
===================================================================================

===================================================================================
=   BAD TERMINATION OF ONE OF YOUR APPLICATION PROCESSES
=   RANK 8 PID 33584 RUNNING AT r5c01cn3.hopper
=   KILLED BY SIGNAL: 9 (Killed)
===================================================================================

===================================================================================
=   BAD TERMINATION OF ONE OF YOUR APPLICATION PROCESSES
=   RANK 9 PID 33585 RUNNING AT r5c01cn3.hopper
=   KILLED BY SIGNAL: 9 (Killed)
===================================================================================

===================================================================================
=   BAD TERMINATION OF ONE OF YOUR APPLICATION PROCESSES
=   RANK 10 PID 33586 RUNNING AT r5c01cn3.hopper
=   KILLED BY SIGNAL: 9 (Killed)
===================================================================================

===================================================================================
=   BAD TERMINATION OF ONE OF YOUR APPLICATION PROCESSES
=   RANK 11 PID 33587 RUNNING AT r5c01cn3.hopper
=   KILLED BY SIGNAL: 9 (Killed)
===================================================================================

===================================================================================
=   BAD TERMINATION OF ONE OF YOUR APPLICATION PROCESSES
=   RANK 12 PID 33588 RUNNING AT r5c01cn3.hopper
=   KILLED BY SIGNAL: 9 (Killed)
===================================================================================

===================================================================================
=   BAD TERMINATION OF ONE OF YOUR APPLICATION PROCESSES
=   RANK 13 PID 33589 RUNNING AT r5c01cn3.hopper
=   KILLED BY SIGNAL: 9 (Killed)
===================================================================================

===================================================================================
=   BAD TERMINATION OF ONE OF YOUR APPLICATION PROCESSES
=   RANK 14 PID 33590 RUNNING AT r5c01cn3.hopper
=   KILLED BY SIGNAL: 9 (Killed)
===================================================================================

===================================================================================
=   BAD TERMINATION OF ONE OF YOUR APPLICATION PROCESSES
=   RANK 15 PID 33591 RUNNING AT r5c01cn3.hopper
=   KILLED BY SIGNAL: 9 (Killed)
===================================================================================

===================================================================================
=   BAD TERMINATION OF ONE OF YOUR APPLICATION PROCESSES
=   RANK 16 PID 33592 RUNNING AT r5c01cn3.hopper
=   KILLED BY SIGNAL: 9 (Killed)
===================================================================================

===================================================================================
=   BAD TERMINATION OF ONE OF YOUR APPLICATION PROCESSES
=   RANK 17 PID 33593 RUNNING AT r5c01cn3.hopper
=   KILLED BY SIGNAL: 9 (Killed)
===================================================================================

===================================================================================
=   BAD TERMINATION OF ONE OF YOUR APPLICATION PROCESSES
=   RANK 18 PID 33594 RUNNING AT r5c01cn3.hopper
=   KILLED BY SIGNAL: 9 (Killed)
===================================================================================

===================================================================================
=   BAD TERMINATION OF ONE OF YOUR APPLICATION PROCESSES
=   RANK 19 PID 33595 RUNNING AT r5c01cn3.hopper
=   KILLED BY SIGNAL: 9 (Killed)
===================================================================================
