
     Program PWSCF v.7.1 starts on 21Nov2022 at 21:14:39 
        Git branch: master
        Last git commit: ce561e80fa51fbc2904c59db0bf7fc0b825e1bb9
        Last git commit date: Thu Jun 16 14:15:26 2022 +0000
        Last git commit subject: Merge branch 'master-qe-7.1' into 'master'

     This program is part of the open-source Quantum ESPRESSO suite
     for quantum simulation of materials; please cite
         "P. Giannozzi et al., J. Phys.:Condens. Matter 21 395502 (2009);
         "P. Giannozzi et al., J. Phys.:Condens. Matter 29 465901 (2017);
         "P. Giannozzi et al., J. Chem. Phys. 152 154105 (2020);
          URL http://www.quantum-espresso.org", 
     in publications or presentations arising from this work. More details at
     http://www.quantum-espresso.org/quote

     Parallel version (MPI), running on     1 processors

     MPI processes distributed on     1 nodes
     3160 MiB available memory on the printing compute node when the environment starts

     Waiting for input...
     Reading input from standard input

     Current dimensions of program PWSCF are:
     Max number of different atomic species (ntypx) = 10
     Max number of k-points (npk) =  40000
     Max angular momentum in pseudopotentials (lmaxx) =  4
     file Fe.pbe-spn-kjpaw_psl.0.2.1.UPF: wavefunction(s)  3D renormalized

     IMPORTANT: XC functional enforced from input :
     Exchange-correlation= PBE
                           (   1   4   3   4   0   0   0)
     Any further DFT definition will be discarded
     Please, verify this is what you really want

     Message from routine setup:
     using ibrav=0 with symmetry is DISCOURAGED, use correct ibrav instead

     Subspace diagonalization in iterative solution of the eigenvalue problem:
     a serial algorithm will be used


     G-vector sticks info
     --------------------
     sticks:   dense  smooth     PW     G-vecs:    dense   smooth      PW
     Sum        3917    1941    553               184739    65117    9771

     Using Slab Decomposition



     bravais-lattice index     =            0
     lattice parameter (alat)  =      10.6864  a.u.
     unit-cell volume          =    1220.3782 (a.u.)^3
     number of atoms/cell      =           16
     number of atomic types    =            2
     number of electrons       =       244.00
     number of Kohn-Sham states=          146
     kinetic-energy cutoff     =      54.0000  Ry
     charge density cutoff     =     432.0000  Ry
     scf convergence threshold =      1.0E-08
     mixing beta               =       0.7000
     number of iterations used =            8  plain     mixing
     energy convergence thresh.=      1.0E-04
     force convergence thresh. =      1.0E-03
     press convergence thresh. =      5.0E-01
     Exchange-correlation= PBE
                           (   1   4   3   4   0   0   0)
     nstep                     =           50


     celldm(1)=  10.686401  celldm(2)=   0.000000  celldm(3)=   0.000000
     celldm(4)=   0.000000  celldm(5)=   0.000000  celldm(6)=   0.000000

     crystal axes: (cart. coord. in units of alat)
               a(1) = (   1.000000   0.000000   0.000000 )  
               a(2) = (   0.000000   1.000000   0.000000 )  
               a(3) = (   0.000000   0.000000   1.000000 )  

     reciprocal axes: (cart. coord. in units 2 pi/alat)
               b(1) = (  1.000000  0.000000  0.000000 )  
               b(2) = (  0.000000  1.000000  0.000000 )  
               b(3) = (  0.000000  0.000000  1.000000 )  


     PseudoPot. # 1 for Si read from file:
     ./Si.pbe-n-rrkjus_psl.1.0.0.UPF
     MD5 check sum: 0b0bb1205258b0d07b9f9672cf965d36
     Pseudo is Ultrasoft + core correction, Zval =  4.0
     Generated using "atomic" code by A. Dal Corso  v.5.1
     Using radial grid of 1141 points,  6 beta functions with: 
                l(1) =   0
                l(2) =   0
                l(3) =   1
                l(4) =   1
                l(5) =   2
                l(6) =   2
     Q(r) pseudized with 0 coefficients 


     PseudoPot. # 2 for Fe read from file:
     ./Fe.pbe-spn-kjpaw_psl.0.2.1.UPF
     MD5 check sum: e86618425769142926afa95317d90200
     Pseudo is Projector augmented-wave + core cor, Zval = 16.0
     Generated using "atomic" code by A. Dal Corso  v.5.0.99 svn rev. 10869
     Shape of augmentation charge: PSQ
     Using radial grid of 1191 points,  6 beta functions with: 
                l(1) =   0
                l(2) =   0
                l(3) =   1
                l(4) =   1
                l(5) =   2
                l(6) =   2
     Q(r) pseudized with 0 coefficients 


     atomic species   valence    mass     pseudopotential
        Si             4.00    28.08500     Si( 1.00)
        Fe            16.00    55.84500     Fe( 1.00)

     Starting magnetic structure 
     atomic species   magnetization
        Si           1.000
        Fe           1.000

     48 Sym. Ops., with inversion, found (32 have fractional translation)



   Cartesian axes

     site n.     atom                  positions (alat units)
         1           Fe  tau(   1) = (   0.5000000   0.5000000   0.5000000  )
         2           Fe  tau(   2) = (   0.5000000   1.0000000   1.0000000  )
         3           Fe  tau(   3) = (   1.0000000   0.5000000   1.0000000  )
         4           Fe  tau(   4) = (   1.0000000   1.0000000   0.5000000  )
         5           Fe  tau(   5) = (   0.2500000   0.2500000   0.2500000  )
         6           Fe  tau(   6) = (   0.2500000   0.7500000   0.7500000  )
         7           Fe  tau(   7) = (   0.7500000   0.2500000   0.7500000  )
         8           Fe  tau(   8) = (   0.7500000   0.7500000   0.2500000  )
         9           Fe  tau(   9) = (   0.7500000   0.7500000   0.7500000  )
        10           Fe  tau(  10) = (   0.7500000   0.2500000   0.2500000  )
        11           Fe  tau(  11) = (   0.2500000   0.7500000   0.2500000  )
        12           Fe  tau(  12) = (   0.2500000   0.2500000   0.7500000  )
        13           Fe  tau(  13) = (   0.0000000   0.0000000   0.0000000  )
        14           Fe  tau(  14) = (   0.0000000   0.5000000   0.5000000  )
        15           Fe  tau(  15) = (   0.5000000   0.0000000   0.5000000  )
        16           Si  tau(  16) = (   0.5000000   0.5000000   0.0000000  )

     number of k points=    10  Marzari-Vanderbilt smearing, width (Ry)=  0.0050
                       cart. coord. in units 2pi/alat
        k(    1) = (   0.0000000   0.0000000   0.0000000), wk =   0.0080000
        k(    2) = (   0.0000000   0.0000000   0.2000000), wk =   0.0480000
        k(    3) = (   0.0000000   0.0000000   0.4000000), wk =   0.0480000
        k(    4) = (   0.0000000   0.2000000   0.2000000), wk =   0.0960000
        k(    5) = (   0.0000000   0.2000000   0.4000000), wk =   0.1920000
        k(    6) = (   0.0000000   0.4000000   0.4000000), wk =   0.0960000
        k(    7) = (   0.2000000   0.2000000   0.2000000), wk =   0.0640000
        k(    8) = (   0.2000000   0.2000000   0.4000000), wk =   0.1920000
        k(    9) = (   0.2000000   0.4000000   0.4000000), wk =   0.1920000
        k(   10) = (   0.4000000   0.4000000   0.4000000), wk =   0.0640000

     Dense  grid:   184739 G-vectors     FFT dimensions: (  72,  72,  72)

     Smooth grid:    65117 G-vectors     FFT dimensions: (  50,  50,  50)

     Estimated max dynamical RAM per process >       1.22 GB

     Check: negative core charge=   -0.000076
     Generating pointlists ...
     new r_m :   0.1786 (alat units)  1.9088 (a.u.) for type    1
     new r_m :   0.1786 (alat units)  1.9088 (a.u.) for type    2

     Initial potential from superposition of free atoms

     starting charge     243.9929, renormalised to     244.0000
     Starting wfcs are  199 randomized atomic wfcs
     Checking if some PAW data can be deallocated... 

     total cpu time spent up to now is       60.7 secs

     per-process dynamical memory:   541.6 Mb

     Self-consistent Calculation

     iteration #  1     ecut=    54.00 Ry     beta= 0.70
     Davidson diagonalization with overlap
     ethr =  1.00E-02,  avg # of iterations =  2.5

     negative rho (up, down):  0.000E+00 3.120E-03

     total cpu time spent up to now is      153.9 secs

     total energy              =   -4941.43450667 Ry
     estimated scf accuracy    <      63.36395665 Ry

     total magnetization       =    48.00 Bohr mag/cell
     absolute magnetization    =    63.76 Bohr mag/cell

     iteration #  2     ecut=    54.00 Ry     beta= 0.70
     Davidson diagonalization with overlap
     ethr =  1.00E-02,  avg # of iterations =  2.8

     negative rho (up, down):  0.000E+00 2.596E-03

     total cpu time spent up to now is      242.6 secs

     total energy              =   -4944.49980074 Ry
     estimated scf accuracy    <      15.90838397 Ry

     total magnetization       =    44.16 Bohr mag/cell
     absolute magnetization    =    49.75 Bohr mag/cell

     iteration #  3     ecut=    54.00 Ry     beta= 0.70
     Davidson diagonalization with overlap
     ethr =  6.52E-03,  avg # of iterations =  4.8

     negative rho (up, down):  0.000E+00 2.405E-03

     total cpu time spent up to now is      355.3 secs

     total energy              =   -4931.41798780 Ry
     estimated scf accuracy    <     154.38306785 Ry

     total magnetization       =    20.34 Bohr mag/cell
     absolute magnetization    =    24.76 Bohr mag/cell

     iteration #  4     ecut=    54.00 Ry     beta= 0.70
     Davidson diagonalization with overlap
     ethr =  6.52E-03,  avg # of iterations =  5.0

     negative rho (up, down):  0.000E+00 1.948E-03

     total cpu time spent up to now is      480.1 secs

     total energy              =   -4943.57415564 Ry
     estimated scf accuracy    <     113.72201150 Ry

     total magnetization       =    18.79 Bohr mag/cell
     absolute magnetization    =    22.35 Bohr mag/cell

     iteration #  5     ecut=    54.00 Ry     beta= 0.70
     Davidson diagonalization with overlap
     ethr =  6.52E-03,  avg # of iterations =  4.2

     negative rho (up, down):  0.000E+00 1.862E-03

     total cpu time spent up to now is      581.8 secs

     total energy              =   -4947.86874472 Ry
     estimated scf accuracy    <      36.84859827 Ry

     total magnetization       =    25.75 Bohr mag/cell
     absolute magnetization    =    27.31 Bohr mag/cell

     iteration #  6     ecut=    54.00 Ry     beta= 0.70
     Davidson diagonalization with overlap
     ethr =  6.52E-03,  avg # of iterations =  2.0

     negative rho (up, down):  0.000E+00 1.681E-03

     total cpu time spent up to now is      662.0 secs

     total energy              =   -4949.86035960 Ry
     estimated scf accuracy    <       3.67414246 Ry

     total magnetization       =    27.82 Bohr mag/cell
     absolute magnetization    =    30.31 Bohr mag/cell

     iteration #  7     ecut=    54.00 Ry     beta= 0.70
     Davidson diagonalization with overlap
     ethr =  1.51E-03,  avg # of iterations =  2.1

     negative rho (up, down):  0.000E+00 1.661E-03

     total cpu time spent up to now is      744.3 secs

     total energy              =   -4950.24407181 Ry
     estimated scf accuracy    <      10.45078529 Ry

     total magnetization       =    27.98 Bohr mag/cell
     absolute magnetization    =    30.64 Bohr mag/cell

     iteration #  8     ecut=    54.00 Ry     beta= 0.70
     Davidson diagonalization with overlap
     ethr =  1.51E-03,  avg # of iterations =  1.1

     negative rho (up, down):  0.000E+00 1.769E-03

     total cpu time spent up to now is      813.9 secs

     total energy              =   -4950.35452457 Ry
     estimated scf accuracy    <       1.31933708 Ry

     total magnetization       =    30.29 Bohr mag/cell
     absolute magnetization    =    32.42 Bohr mag/cell

     iteration #  9     ecut=    54.00 Ry     beta= 0.70
     Davidson diagonalization with overlap
     ethr =  5.41E-04,  avg # of iterations =  1.2

     negative rho (up, down):  0.000E+00 1.754E-03

     total cpu time spent up to now is      884.2 secs

     total energy              =   -4950.40241414 Ry
     estimated scf accuracy    <       0.82186042 Ry

     total magnetization       =    30.70 Bohr mag/cell
     absolute magnetization    =    32.97 Bohr mag/cell

     iteration # 10     ecut=    54.00 Ry     beta= 0.70
     Davidson diagonalization with overlap
     ethr =  3.37E-04,  avg # of iterations =  1.0

     negative rho (up, down):  0.000E+00 1.815E-03

     total cpu time spent up to now is      952.9 secs

     total energy              =   -4950.42573889 Ry
     estimated scf accuracy    <       0.10901401 Ry

     total magnetization       =    31.06 Bohr mag/cell
     absolute magnetization    =    33.25 Bohr mag/cell

     iteration # 11     ecut=    54.00 Ry     beta= 0.70
     Davidson diagonalization with overlap
     ethr =  4.47E-05,  avg # of iterations =  5.5

     negative rho (up, down):  0.000E+00 1.778E-03

     total cpu time spent up to now is     1040.4 secs

     total energy              =   -4950.44156568 Ry
     estimated scf accuracy    <       0.04898912 Ry

     total magnetization       =    31.57 Bohr mag/cell
     absolute magnetization    =    33.66 Bohr mag/cell

     iteration # 12     ecut=    54.00 Ry     beta= 0.70
     Davidson diagonalization with overlap
     ethr =  2.01E-05,  avg # of iterations =  3.0

     negative rho (up, down):  0.000E+00 1.779E-03

     total cpu time spent up to now is     1121.9 secs

     total energy              =   -4950.44651939 Ry
     estimated scf accuracy    <       0.00295471 Ry

     total magnetization       =    31.38 Bohr mag/cell
     absolute magnetization    =    33.44 Bohr mag/cell

     iteration # 13     ecut=    54.00 Ry     beta= 0.70
     Davidson diagonalization with overlap
     ethr =  1.21E-06,  avg # of iterations =  7.0

     negative rho (up, down):  0.000E+00 1.771E-03

     total cpu time spent up to now is     1275.5 secs

     total energy              =   -4950.44935911 Ry
     estimated scf accuracy    <       0.00128223 Ry

     total magnetization       =    31.41 Bohr mag/cell
     absolute magnetization    =    33.43 Bohr mag/cell

     iteration # 14     ecut=    54.00 Ry     beta= 0.70
     Davidson diagonalization with overlap
     ethr =  5.26E-07,  avg # of iterations =  2.0

     negative rho (up, down):  0.000E+00 1.765E-03

     total cpu time spent up to now is     1355.4 secs

     total energy              =   -4950.44950301 Ry
     estimated scf accuracy    <       0.00099207 Ry

     total magnetization       =    31.34 Bohr mag/cell
     absolute magnetization    =    33.36 Bohr mag/cell

     iteration # 15     ecut=    54.00 Ry     beta= 0.70
     Davidson diagonalization with overlap
     ethr =  4.07E-07,  avg # of iterations =  2.3

     negative rho (up, down):  0.000E+00 1.758E-03

     total cpu time spent up to now is     1436.0 secs

     total energy              =   -4950.44954432 Ry
     estimated scf accuracy    <       0.00173282 Ry

     total magnetization       =    31.30 Bohr mag/cell
     absolute magnetization    =    33.32 Bohr mag/cell

     iteration # 16     ecut=    54.00 Ry     beta= 0.70
     Davidson diagonalization with overlap
     ethr =  4.07E-07,  avg # of iterations =  2.4

     negative rho (up, down):  0.000E+00 1.755E-03

     total cpu time spent up to now is     1513.3 secs

     total energy              =   -4950.44966844 Ry
     estimated scf accuracy    <       0.00015461 Ry

     total magnetization       =    31.29 Bohr mag/cell
     absolute magnetization    =    33.31 Bohr mag/cell

     iteration # 17     ecut=    54.00 Ry     beta= 0.70
     Davidson diagonalization with overlap
     ethr =  6.34E-08,  avg # of iterations =  3.2

     negative rho (up, down):  0.000E+00 1.757E-03

     total cpu time spent up to now is     1605.4 secs

     total energy              =   -4950.44970239 Ry
     estimated scf accuracy    <       0.00008302 Ry

     total magnetization       =    31.27 Bohr mag/cell
     absolute magnetization    =    33.29 Bohr mag/cell

     iteration # 18     ecut=    54.00 Ry     beta= 0.70
     Davidson diagonalization with overlap
     ethr =  3.40E-08,  avg # of iterations =  2.1

     negative rho (up, down):  0.000E+00 1.756E-03

     total cpu time spent up to now is     1689.5 secs

     total energy              =   -4950.44971196 Ry
     estimated scf accuracy    <       0.00001156 Ry

     total magnetization       =    31.29 Bohr mag/cell
     absolute magnetization    =    33.30 Bohr mag/cell

     iteration # 19     ecut=    54.00 Ry     beta= 0.70
     Davidson diagonalization with overlap
     ethr =  4.74E-09,  avg # of iterations =  4.7

     negative rho (up, down):  0.000E+00 1.757E-03

     total cpu time spent up to now is     1793.9 secs

     total energy              =   -4950.44971804 Ry
     estimated scf accuracy    <       0.00000372 Ry

     total magnetization       =    31.29 Bohr mag/cell
     absolute magnetization    =    33.30 Bohr mag/cell

     iteration # 20     ecut=    54.00 Ry     beta= 0.70
     Davidson diagonalization with overlap
     ethr =  1.52E-09,  avg # of iterations =  3.5

     negative rho (up, down):  0.000E+00 1.757E-03

     total cpu time spent up to now is     1884.8 secs

     total energy              =   -4950.44971883 Ry
     estimated scf accuracy    <       0.00000056 Ry

     total magnetization       =    31.29 Bohr mag/cell
     absolute magnetization    =    33.30 Bohr mag/cell

     iteration # 21     ecut=    54.00 Ry     beta= 0.70
     Davidson diagonalization with overlap
     ethr =  2.31E-10,  avg # of iterations =  4.3

     negative rho (up, down):  0.000E+00 1.757E-03

     total cpu time spent up to now is     1989.9 secs

     total energy              =   -4950.44971906 Ry
     estimated scf accuracy    <       0.00000012 Ry

     total magnetization       =    31.29 Bohr mag/cell
     absolute magnetization    =    33.31 Bohr mag/cell

     iteration # 22     ecut=    54.00 Ry     beta= 0.70
     Davidson diagonalization with overlap
     ethr =  5.01E-11,  avg # of iterations =  4.0

     negative rho (up, down):  0.000E+00 1.757E-03

     total cpu time spent up to now is     2090.1 secs

     total energy              =   -4950.44971910 Ry
     estimated scf accuracy    <       0.00000008 Ry

     total magnetization       =    31.29 Bohr mag/cell
     absolute magnetization    =    33.31 Bohr mag/cell

     iteration # 23     ecut=    54.00 Ry     beta= 0.70
     Davidson diagonalization with overlap
     ethr =  3.37E-11,  avg # of iterations =  2.3

     negative rho (up, down):  0.000E+00 1.757E-03

     total cpu time spent up to now is     2172.9 secs

     total energy              =   -4950.44971911 Ry
     estimated scf accuracy    <       0.00000007 Ry

     total magnetization       =    31.29 Bohr mag/cell
     absolute magnetization    =    33.31 Bohr mag/cell

     iteration # 24     ecut=    54.00 Ry     beta= 0.70
     Davidson diagonalization with overlap
     ethr =  2.85E-11,  avg # of iterations =  1.1

     negative rho (up, down):  0.000E+00 1.757E-03

     Magnetic moment per site  (integrated on atomic sphere of radius R)
     atom   1 (R=0.179)  charge= 14.3920  magn=  2.2055
     atom   2 (R=0.179)  charge= 14.3920  magn=  2.2055
     atom   3 (R=0.179)  charge= 14.3920  magn=  2.2055
     atom   4 (R=0.179)  charge= 14.3842  magn=  2.4486
     atom   5 (R=0.179)  charge= 14.4097  magn=  2.0392
     atom   6 (R=0.179)  charge= 14.4097  magn=  2.0392
     atom   7 (R=0.179)  charge= 14.4097  magn=  2.0392
     atom   8 (R=0.179)  charge= 14.4097  magn=  2.0392
     atom   9 (R=0.179)  charge= 14.4097  magn=  2.0392
     atom  10 (R=0.179)  charge= 14.4097  magn=  2.0392
     atom  11 (R=0.179)  charge= 14.4097  magn=  2.0392
     atom  12 (R=0.179)  charge= 14.4097  magn=  2.0392
     atom  13 (R=0.179)  charge= 14.3842  magn=  2.2448
     atom  14 (R=0.179)  charge= 14.3842  magn=  2.2448
     atom  15 (R=0.179)  charge= 14.3842  magn=  2.2448
     atom  16 (R=0.179)  charge=  2.0592  magn= -0.1017

     total cpu time spent up to now is     2242.6 secs

     End of self-consistent calculation

 ------ SPIN UP ------------


          k = 0.0000 0.0000 0.0000 (  8217 PWs)   bands (ev):

   -70.0116 -69.9988 -69.9988 -69.9588 -69.9485 -69.9485 -69.9355 -69.7838
   -69.7838 -69.7838 -69.7784 -69.7784 -69.7784 -69.7738 -69.7675 -36.1945
   -36.1945 -36.1945 -36.1718 -36.1718 -36.1718 -36.0784 -36.0784 -36.0784
   -36.0343 -36.0343 -36.0343 -36.0178 -36.0178 -36.0178 -35.9575 -35.9575
   -35.9575 -35.9540 -35.9540 -35.9540 -35.8829 -35.8829 -35.8616 -35.8616
   -35.8616 -35.8417 -35.8113 -35.8113 -35.8113 -35.8054 -35.8054 -35.7773
   -35.7773 -35.7773 -35.7622 -35.7417 -35.7417 -35.7417 -35.7244 -35.7244
   -35.7244 -35.7204 -35.7204 -35.7204   8.0634  11.2412  12.7278  12.7278
    12.7278  13.1610  13.1610  13.2326  13.2326  13.2326  13.2495  13.3045
    13.3045  13.5550  13.5550  14.6349  14.6349  14.6349  14.7066  14.7066
    14.7066  14.7953  14.7953  14.7953  15.0373  15.1290  15.1290  15.1290
    15.1572  15.1572  15.1572  15.3514  15.3514  15.9148  15.9148  15.9148
    16.1415  16.1415  16.1415  16.1977  16.1977  16.1977  16.3400  16.3400
    16.3400  16.6817  16.6817  16.6817  16.7749  17.0207  17.0207  17.0826
    17.0906  17.0906  17.1099  17.1099  17.1180  17.1180  17.1180  17.1651
    17.2063  17.2063  17.2738  17.2738  17.2738  17.3357  17.3357  17.3357
    17.3742  17.3742  17.5789  17.8765  17.8765  17.8765  18.0373  18.0373
    18.4265  18.4265  18.4265  18.4460  18.4460  18.4460  18.5550  18.5550
    18.5550  18.5751

          k = 0.0000 0.0000 0.2000 (  8173 PWs)   bands (ev):

   -70.0100 -69.9997 -69.9987 -69.9583 -69.9493 -69.9485 -69.9355 -69.7832
   -69.7832 -69.7822 -69.7790 -69.7790 -69.7779 -69.7733 -69.7688 -36.1896
   -36.1882 -36.1882 -36.1611 -36.1611 -36.1584 -36.0867 -36.0867 -36.0784
   -36.0466 -36.0466 -36.0389 -36.0235 -36.0235 -36.0195 -35.9998 -35.9690
   -35.9653 -35.9653 -35.9550 -35.9550 -35.8623 -35.8558 -35.8459 -35.8421
   -35.8421 -35.8287 -35.8108 -35.8100 -35.8060 -35.8006 -35.8006 -35.7764
   -35.7760 -35.7760 -35.7645 -35.7494 -35.7448 -35.7448 -35.7326 -35.7319
   -35.7319 -35.7300 -35.7231 -35.7231   8.1906  11.1041  12.3442  12.7693
    12.7693  13.2294  13.2403  13.3209  13.3209  13.3253  13.3630  13.3758
    13.3794  13.6344  13.7937  14.4323  14.5743  14.5743  14.6210  14.7048
    14.7361  14.7361  14.7960  14.9363  14.9363  15.0713  15.1083  15.1121
    15.1121  15.1734  15.1734  15.2836  15.7768  15.8519  15.8519  15.9092
    15.9123  15.9915  15.9915  16.1272  16.1272  16.2532  16.4003  16.4933
    16.4933  16.5021  16.5807  16.6031  16.6031  16.6740  16.8362  16.8657
    16.8657  16.9080  16.9435  17.0763  17.0860  17.1185  17.1527  17.1527
    17.1894  17.1894  17.2004  17.2414  17.3391  17.3542  17.3626  17.4015
    17.4239  17.5046  17.6592  17.7813  17.9153  17.9164  17.9164  18.0821
    18.1275  18.1275  18.3577  18.3613  18.3613  18.4883  18.5629  18.5629
    18.6381  19.2879

          k = 0.0000 0.0000 0.4000 (  8165 PWs)   bands (ev):

   -70.0065 -70.0020 -69.9986 -69.9577 -69.9506 -69.9486 -69.9360 -69.7818
   -69.7818 -69.7803 -69.7803 -69.7785 -69.7764 -69.7749 -69.7720 -36.1807
   -36.1753 -36.1753 -36.1313 -36.1313 -36.1209 -36.1035 -36.1035 -36.0888
   -36.0888 -36.0797 -36.0630 -36.0461 -36.0196 -36.0153 -36.0153 -35.9894
   -35.9812 -35.9812 -35.9554 -35.9554 -35.8408 -35.8231 -35.8204 -35.8093
   -35.8084 -35.8084 -35.8075 -35.8064 -35.7962 -35.7796 -35.7796 -35.7758
   -35.7737 -35.7709 -35.7709 -35.7693 -35.7578 -35.7578 -35.7567 -35.7508
   -35.7508 -35.7478 -35.7268 -35.7268   8.4510  10.6704  12.2505  12.8275
    12.8275  13.2097  13.3929  13.4553  13.5180  13.5180  13.5267  13.6013
    13.7368  13.7600  13.9077  14.1057  14.1965  14.3034  14.5089  14.5089
    14.7810  14.7810  14.9962  14.9962  15.0534  15.0885  15.1746  15.1746
    15.1810  15.2286  15.4523  15.4572  15.4572  15.6064  15.6064  15.7997
    15.8111  15.8320  15.8320  15.8989  15.8989  16.0146  16.1744  16.1744
    16.1937  16.2845  16.4224  16.4224  16.6108  16.6778  16.7372  16.7703
    16.7852  16.8492  16.8492  17.0019  17.0408  17.0408  17.1316  17.1484
    17.1984  17.2745  17.3125  17.3485  17.3599  17.3923  17.4229  17.4229
    17.6783  17.7121  17.7121  17.8151  17.8496  17.9658  18.0125  18.0903
    18.0903  18.1595  18.2144  18.2366  18.2422  18.2422  18.6178  18.6422
    18.6422  20.8033

          k = 0.0000 0.2000 0.2000 (  8216 PWs)   bands (ev):

   -70.0087 -70.0001 -69.9992 -69.9580 -69.9497 -69.9491 -69.9360 -69.7828
   -69.7824 -69.7817 -69.7793 -69.7785 -69.7785 -69.7742 -69.7698 -36.1892
   -36.1833 -36.1829 -36.1542 -36.1519 -36.1409 -36.0923 -36.0922 -36.0828
   -36.0597 -36.0549 -36.0476 -36.0230 -36.0205 -36.0189 -36.0037 -35.9816
   -35.9714 -35.9691 -35.9627 -35.9594 -35.8560 -35.8546 -35.8407 -35.8295
   -35.8247 -35.8132 -35.8131 -35.8096 -35.8083 -35.7955 -35.7854 -35.7764
   -35.7745 -35.7728 -35.7680 -35.7633 -35.7511 -35.7460 -35.7455 -35.7372
   -35.7324 -35.7297 -35.7250 -35.7215   8.3095  11.0895  12.1007  12.6882
    12.8343  13.0901  13.3358  13.3620  13.4120  13.4433  13.4615  13.4685
    13.5317  13.8401  13.8693  14.3296  14.5253  14.5498  14.6050  14.6868
    14.7696  14.7779  14.8130  14.8395  14.9169  14.9686  14.9708  15.1163
    15.1394  15.1396  15.2124  15.4749  15.6352  15.7258  15.7307  15.7958
    15.8647  15.9817  16.0795  16.1199  16.1420  16.2269  16.2769  16.3404
    16.3862  16.4350  16.4782  16.5311  16.6308  16.6440  16.6687  16.7311
    16.7712  16.8530  16.9190  16.9565  16.9787  17.0472  17.0897  17.1084
    17.1472  17.2237  17.2669  17.2851  17.3148  17.3723  17.4929  17.5070
    17.5476  17.5572  17.5577  17.5711  17.6534  17.7482  17.8012  17.8631
    18.0372  18.0423  18.1680  18.3882  18.4659  18.8418  18.9636  19.2928
    19.3189  19.5113

          k = 0.0000 0.2000 0.4000 (  8200 PWs)   bands (ev):

   -70.0057 -70.0019 -69.9993 -69.9572 -69.9509 -69.9494 -69.9365 -69.7815
   -69.7813 -69.7803 -69.7797 -69.7785 -69.7770 -69.7753 -69.7730 -36.1852
   -36.1742 -36.1736 -36.1306 -36.1264 -36.1103 -36.1034 -36.1025 -36.0916
   -36.0902 -36.0783 -36.0490 -36.0465 -36.0270 -36.0110 -36.0078 -35.9937
   -35.9822 -35.9805 -35.9665 -35.9622 -35.8445 -35.8356 -35.8267 -35.8150
   -35.8116 -35.8102 -35.8048 -35.8006 -35.7995 -35.7884 -35.7815 -35.7775
   -35.7771 -35.7701 -35.7670 -35.7650 -35.7611 -35.7574 -35.7550 -35.7506
   -35.7376 -35.7364 -35.7267 -35.7247   8.5479  10.8303  11.9521  12.8555
    12.9000  12.9318  13.3735  13.5739  13.5847  13.6532  13.6846  13.7534
    13.8169  13.8544  13.9820  14.0648  14.2597  14.3204  14.5585  14.5808
    14.7643  14.7934  14.8295  14.9336  14.9438  15.0041  15.0719  15.0816
    15.2471  15.2578  15.3433  15.4164  15.4712  15.5522  15.5915  15.6349
    15.7012  15.7692  15.7709  15.8310  15.9017  15.9494  16.0636  16.0851
    16.1232  16.2546  16.5112  16.5518  16.6186  16.6962  16.7004  16.7428
    16.7742  16.7954  16.8449  16.9514  16.9979  17.0548  17.1083  17.1149
    17.1805  17.2240  17.2373  17.2804  17.3130  17.3367  17.3679  17.3810
    17.4330  17.4958  17.5276  17.5409  17.6292  17.7538  17.7788  17.9186
    18.0151  18.1136  18.3677  18.3842  18.6292  18.7870  19.1773  19.4074
    20.0690  20.5197

          k = 0.0000 0.4000 0.4000 (  8162 PWs)   bands (ev):

   -70.0036 -70.0018 -70.0005 -69.9556 -69.9512 -69.9507 -69.9372 -69.7810
   -69.7800 -69.7785 -69.7784 -69.7784 -69.7780 -69.7765 -69.7747 -36.1899
   -36.1729 -36.1707 -36.1253 -36.1141 -36.1057 -36.1033 -36.1005 -36.0985
   -36.0969 -36.0528 -36.0481 -36.0354 -36.0207 -36.0125 -35.9999 -35.9987
   -35.9855 -35.9854 -35.9850 -35.9757 -35.8446 -35.8441 -35.8355 -35.8310
   -35.8200 -35.8167 -35.8163 -35.8090 -35.7900 -35.7862 -35.7805 -35.7781
   -35.7762 -35.7727 -35.7619 -35.7612 -35.7604 -35.7559 -35.7536 -35.7409
   -35.7294 -35.7269 -35.7260 -35.7228   8.7329  11.1889  11.5038  12.2878
    13.1298  13.1403  13.4799  13.6194  13.8526  13.8853  13.9056  13.9413
    13.9610  13.9638  14.0006  14.2076  14.2952  14.3666  14.4494  14.5345
    14.7274  14.7473  14.7632  14.8119  14.8312  14.8506  14.9232  14.9374
    15.2320  15.2396  15.2635  15.3147  15.4456  15.4691  15.5092  15.5181
    15.5749  15.5970  15.6160  15.6913  15.6936  15.7003  15.7245  16.0527
    16.2026  16.2619  16.5295  16.6399  16.7091  16.7469  16.7768  16.7931
    16.8584  16.8643  16.8745  16.8951  16.9324  17.0026  17.0433  17.0437
    17.0509  17.0638  17.0666  17.1375  17.1547  17.2019  17.2112  17.3105
    17.3260  17.4107  17.4142  17.4255  17.4924  17.5125  17.5910  17.9980
    18.0385  18.3575  18.4515  19.0118  19.1634  19.5592  19.8353  19.9741
    19.9791  20.6750

          k = 0.2000 0.2000 0.2000 (  8172 PWs)   bands (ev):

   -70.0075 -69.9998 -69.9998 -69.9574 -69.9497 -69.9497 -69.9363 -69.7823
   -69.7813 -69.7813 -69.7787 -69.7787 -69.7787 -69.7744 -69.7708 -36.1855
   -36.1855 -36.1758 -36.1510 -36.1335 -36.1335 -36.0956 -36.0956 -36.0880
   -36.0621 -36.0529 -36.0529 -36.0296 -36.0296 -36.0096 -35.9981 -35.9981
   -35.9782 -35.9744 -35.9691 -35.9691 -35.8407 -35.8407 -35.8367 -35.8367
   -35.8218 -35.8130 -35.8130 -35.8027 -35.7978 -35.7898 -35.7898 -35.7823
   -35.7740 -35.7702 -35.7702 -35.7663 -35.7524 -35.7524 -35.7413 -35.7413
   -35.7332 -35.7327 -35.7248 -35.7248   8.4213  11.1269  12.2111  12.2111
    12.9927  13.2044  13.2493  13.2493  13.4758  13.4758  13.6134  13.6134
    13.7380  13.9684  13.9684  14.3287  14.4997  14.4997  14.5032  14.7611
    14.7611  14.7641  14.7797  14.8628  14.8628  14.9550  14.9550  15.0859
    15.0963  15.0963  15.3311  15.4833  15.4833  15.6217  15.6217  15.7809
    15.8194  15.8194  15.9507  16.0101  16.0101  16.0504  16.1913  16.2770
    16.2770  16.4066  16.4413  16.4413  16.6142  16.6142  16.7252  16.7759
    16.7974  16.9275  16.9275  16.9933  16.9933  17.0504  17.0504  17.1521
    17.1521  17.2019  17.2266  17.2291  17.2291  17.2876  17.3286  17.3286
    17.4600  17.5508  17.5508  17.5872  17.6551  17.6551  17.7746  17.7746
    18.1180  18.1180  18.1256  18.5286  18.7720  18.7720  19.0401  19.4246
    19.4246  20.2079

          k = 0.2000 0.2000 0.4000 (  8176 PWs)   bands (ev):

   -70.0049 -70.0017 -69.9996 -69.9565 -69.9510 -69.9498 -69.9370 -69.7814
   -69.7806 -69.7797 -69.7793 -69.7784 -69.7774 -69.7758 -69.7735 -36.1843
   -36.1785 -36.1687 -36.1289 -36.1174 -36.1117 -36.1015 -36.0938 -36.0906
   -36.0844 -36.0720 -36.0479 -36.0423 -36.0307 -36.0237 -36.0095 -35.9937
   -35.9901 -35.9811 -35.9752 -35.9746 -35.8387 -35.8337 -35.8254 -35.8176
   -35.8123 -35.8104 -35.8070 -35.8033 -35.8008 -35.7850 -35.7821 -35.7805
   -35.7760 -35.7725 -35.7700 -35.7648 -35.7632 -35.7514 -35.7505 -35.7435
   -35.7415 -35.7339 -35.7273 -35.7255   8.6410  10.9909  11.9649  12.4299
    12.9536  13.1568  13.2125  13.5134  13.6790  13.6941  13.8644  13.8764
    13.9140  13.9612  14.0496  14.1016  14.2843  14.3539  14.5550  14.6110
    14.7247  14.8152  14.8216  14.8683  14.9495  14.9794  15.0345  15.0462
    15.2288  15.2501  15.2743  15.2849  15.4331  15.4833  15.4847  15.5369
    15.5824  15.6170  15.6531  15.6943  15.7649  15.8331  15.8913  15.9782
    16.1129  16.2186  16.5059  16.6093  16.6660  16.6938  16.7507  16.7697
    16.8153  16.8413  16.8913  16.9359  16.9683  17.0377  17.0554  17.0886
    17.1044  17.2213  17.2367  17.2534  17.2712  17.2716  17.3064  17.3529
    17.3924  17.4267  17.4535  17.6628  17.7169  17.7701  17.8932  17.9534
    18.0140  18.0594  18.1686  18.2742  18.2886  19.3392  19.6645  19.9649
    20.0077  20.6568

          k = 0.2000 0.4000 0.4000 (  8159 PWs)   bands (ev):

   -70.0032 -70.0015 -70.0007 -69.9549 -69.9514 -69.9511 -69.9379 -69.7811
   -69.7795 -69.7784 -69.7784 -69.7781 -69.7779 -69.7768 -69.7752 -36.1863
   -36.1769 -36.1650 -36.1182 -36.1096 -36.1054 -36.0939 -36.0934 -36.0898
   -36.0811 -36.0538 -36.0470 -36.0351 -36.0336 -36.0242 -36.0112 -36.0105
   -36.0016 -35.9967 -35.9918 -35.9854 -35.8340 -35.8289 -35.8287 -35.8244
   -35.8192 -35.8139 -35.8058 -35.7995 -35.7946 -35.7874 -35.7812 -35.7793
   -35.7771 -35.7749 -35.7636 -35.7628 -35.7587 -35.7557 -35.7535 -35.7441
   -35.7359 -35.7302 -35.7272 -35.7268   8.8172  11.3527  11.6557  12.4470
    12.5333  13.3612  13.3712  13.5655  13.7704  13.8836  13.9672  14.0200
    14.0338  14.1561  14.1591  14.2768  14.3966  14.4191  14.4558  14.4741
    14.7686  14.7878  14.8029  14.8045  14.8608  14.8836  14.9531  14.9570
    15.1023  15.1839  15.2103  15.2657  15.2714  15.3527  15.3531  15.3628
    15.3982  15.4274  15.4646  15.4916  15.5601  15.6277  15.6444  15.8185
    15.9515  16.2660  16.2869  16.5024  16.7942  16.8308  16.8372  16.8419
    16.9097  16.9358  16.9966  17.0230  17.0471  17.0567  17.0633  17.0910
    17.1299  17.1561  17.1701  17.1995  17.2287  17.2613  17.2671  17.2781
    17.3214  17.3404  17.4278  17.5275  17.5967  17.6163  17.7655  17.9221
    17.9270  18.1704  18.2363  18.3683  18.8929  19.0122  19.7373  20.1755
    20.9110  20.9566

          k = 0.4000 0.4000 0.4000 (  8186 PWs)   bands (ev):

   -70.0023 -70.0013 -70.0013 -69.9535 -69.9519 -69.9519 -69.9394 -69.7812
   -69.7785 -69.7785 -69.7781 -69.7778 -69.7778 -69.7773 -69.7763 -36.1796
   -36.1796 -36.1592 -36.0978 -36.0973 -36.0973 -36.0782 -36.0709 -36.0709
   -36.0605 -36.0605 -36.0584 -36.0435 -36.0435 -36.0307 -36.0274 -36.0274
   -36.0242 -36.0242 -36.0227 -36.0025 -35.8222 -35.8185 -35.8185 -35.8040
   -35.8040 -35.8000 -35.8000 -35.7999 -35.7885 -35.7885 -35.7816 -35.7767
   -35.7730 -35.7730 -35.7730 -35.7622 -35.7622 -35.7599 -35.7551 -35.7518
   -35.7518 -35.7338 -35.7319 -35.7319   8.9735  11.7417  12.0098  12.0098
    12.7144  13.0352  13.0352  13.5048  13.9703  13.9991  13.9991  14.2400
    14.2400  14.3483  14.3722  14.3722  14.3933  14.5129  14.5129  14.6146
    14.8644  14.8672  14.8672  14.8793  14.8793  14.9033  14.9229  14.9229
    14.9373  14.9884  14.9884  15.1053  15.1053  15.1203  15.1281  15.1579
    15.1579  15.1988  15.1988  15.2933  15.2933  15.3394  15.5475  15.5475
    15.6080  16.1695  16.1695  16.2696  16.9209  16.9246  16.9246  16.9330
    17.0174  17.0174  17.0716  17.0716  17.1524  17.1524  17.1541  17.1631
    17.1774  17.1774  17.2323  17.2323  17.3143  17.3533  17.3982  17.3982
    17.4389  17.4389  17.4488  17.7576  17.7576  17.7884  17.7884  17.8243
    17.8784  17.8871  17.8871  18.3389  18.3389  18.3663  18.9862  21.4383
    21.7855  21.7855

 ------ SPIN DOWN ----------


          k = 0.0000 0.0000 0.0000 (  8217 PWs)   bands (ev):

   -67.4353 -67.3831 -67.3831 -67.3666 -67.3666 -67.3666 -67.3607 -67.3607
   -67.3607 -67.3553 -67.3446 -67.2853 -67.2853 -67.2636 -67.0294 -33.7361
   -33.7361 -33.7361 -33.6891 -33.6891 -33.6891 -33.5584 -33.5584 -33.5584
   -33.5301 -33.5301 -33.5088 -33.5088 -33.5088 -33.5052 -33.4879 -33.4879
   -33.4879 -33.4619 -33.4619 -33.4619 -33.4488 -33.4488 -33.4488 -33.4419
   -33.4419 -33.4289 -33.4289 -33.4289 -33.4151 -33.4104 -33.4104 -33.4104
   -33.3327 -33.3327 -33.3327 -33.2602 -33.2602 -33.2602 -33.2560 -33.2560
   -33.2560 -33.1007 -33.1007 -33.1007   8.0957  11.5097  13.1047  13.1047
    13.1047  13.9912  13.9912  14.2467  14.4048  14.4048  14.4384  14.4384
    14.4384  15.1065  15.1065  15.6731  15.6731  15.6731  16.2529  16.2529
    16.2529  16.2910  16.2910  16.2910  16.6606  16.6606  16.6606  17.1992
    17.1992  17.1992  17.2938  17.2938  17.2938  17.2984  17.7178  17.7178
    17.7461  17.7461  17.7461  17.9810  17.9810  17.9810  17.9921  17.9921
    17.9921  18.1038  18.1038  18.1038  18.5607  18.5607  18.5607  18.6284
    18.6284  18.6284  18.9293  18.9293  18.9603  19.4538  19.4538  19.4538
    19.4647  19.6823  19.6823  19.8194  19.8194  19.9542  19.9542  19.9542
    19.9956  19.9956  19.9956  20.0030  20.0030  20.0501  20.0801  20.1549
    20.1549  20.4702  20.4702  20.4702  20.5658  20.5809  20.5809  20.6516
    20.6516  20.6516

          k = 0.0000 0.0000 0.2000 (  8173 PWs)   bands (ev):

   -67.4319 -67.3922 -67.3831 -67.3660 -67.3660 -67.3622 -67.3613 -67.3613
   -67.3601 -67.3551 -67.3437 -67.2854 -67.2832 -67.2651 -67.0294 -33.7230
   -33.7230 -33.7225 -33.6816 -33.6783 -33.6783 -33.5730 -33.5730 -33.5666
   -33.5637 -33.5517 -33.5373 -33.5373 -33.5290 -33.5290 -33.5214 -33.5019
   -33.4614 -33.4614 -33.4535 -33.4481 -33.4472 -33.4426 -33.4416 -33.4280
   -33.4222 -33.4222 -33.4176 -33.4049 -33.4049 -33.3863 -33.3863 -33.3834
   -33.3375 -33.3317 -33.3317 -33.2693 -33.2693 -33.2672 -33.2667 -33.2627
   -33.2627 -33.1017 -33.1007 -33.1007   8.2174  11.3102  12.7229  13.1866
    13.1866  14.0944  14.2203  14.3393  14.4303  14.4358  14.4358  14.5943
    14.6471  15.1663  15.2094  15.5682  15.7214  15.7214  16.0828  16.2968
    16.2968  16.3362  16.3362  16.3898  16.6277  16.6277  16.6290  16.7153
    16.9452  16.9958  16.9958  17.1611  17.2944  17.2944  17.6533  17.6794
    17.6794  17.6880  17.7299  17.7509  17.7509  17.9447  17.9447  18.0809
    18.1284  18.1284  18.1305  18.2152  18.3503  18.3503  18.3587  18.4153
    18.8191  18.8737  18.8737  19.2713  19.3179  19.4206  19.4206  19.4344
    19.5566  19.5797  19.7146  19.7505  19.8835  19.9073  19.9330  19.9330
    19.9588  19.9984  20.0699  20.0950  20.1335  20.1638  20.1825  20.1825
    20.3022  20.3236  20.3847  20.3847  20.3958  20.5504  20.5683  20.5683
    20.6327  21.0322

          k = 0.0000 0.0000 0.4000 (  8165 PWs)   bands (ev):

   -67.4224 -67.4067 -67.3831 -67.3645 -67.3645 -67.3628 -67.3628 -67.3585
   -67.3585 -67.3568 -67.3427 -67.2854 -67.2785 -67.2693 -67.0294 -33.6864
   -33.6864 -33.6858 -33.6642 -33.6509 -33.6509 -33.6301 -33.6301 -33.6221
   -33.5991 -33.5834 -33.5834 -33.5504 -33.5401 -33.5250 -33.5250 -33.4929
   -33.4929 -33.4842 -33.4630 -33.4464 -33.4443 -33.4257 -33.4220 -33.4197
   -33.4099 -33.3900 -33.3900 -33.3722 -33.3722 -33.3552 -33.3552 -33.3457
   -33.3445 -33.3206 -33.3206 -33.2939 -33.2939 -33.2904 -33.2845 -33.2788
   -33.2788 -33.1032 -33.1006 -33.1006   8.4627  10.8249  12.6600  13.3368
    13.3368  14.0167  14.3038  14.4272  14.4272  14.4549  14.6086  14.9851
    15.0173  15.2942  15.4357  15.4999  15.6024  15.7893  15.7893  16.0360
    16.2914  16.2914  16.3840  16.3840  16.5500  16.6727  16.7806  16.7806
    16.8979  16.8979  16.9107  17.0031  17.1326  17.1694  17.1694  17.3157
    17.3157  17.3382  17.3899  17.3899  17.5145  17.5219  17.6420  17.6420
    18.0475  18.1176  18.1176  18.6164  18.7466  18.8474  18.8541  18.8541
    18.9517  19.0856  19.0856  19.2532  19.2581  19.3563  19.3563  19.5262
    19.6875  19.6875  19.7009  19.7820  19.8019  19.8207  19.8232  19.9198
    19.9709  19.9863  20.0590  20.0767  20.0853  20.1289  20.1289  20.1331
    20.1980  20.2587  20.3918  20.3918  20.4254  20.4506  20.6193  20.6193
    20.7605  22.0835

          k = 0.0000 0.2000 0.2000 (  8216 PWs)   bands (ev):

   -67.4286 -67.3940 -67.3884 -67.3670 -67.3655 -67.3607 -67.3607 -67.3607
   -67.3589 -67.3559 -67.3437 -67.2843 -67.2826 -67.2667 -67.0294 -33.7188
   -33.7112 -33.7055 -33.6778 -33.6688 -33.6648 -33.5981 -33.5949 -33.5894
   -33.5813 -33.5567 -33.5461 -33.5355 -33.5344 -33.5071 -33.5032 -33.4973
   -33.4895 -33.4762 -33.4604 -33.4504 -33.4473 -33.4432 -33.4404 -33.4348
   -33.4327 -33.4209 -33.3997 -33.3902 -33.3854 -33.3807 -33.3750 -33.3618
   -33.3367 -33.3288 -33.3231 -33.2872 -33.2765 -33.2762 -33.2684 -33.2682
   -33.2564 -33.1017 -33.1013 -33.1005   8.3308  11.2805  12.3512  13.2200
    13.2713  13.8832  14.3481  14.3562  14.5610  14.6180  14.6223  14.7404
    14.7643  15.2529  15.2800  15.4953  15.7620  15.7809  16.0100  16.2580
    16.3438  16.3598  16.3721  16.4200  16.5311  16.5352  16.5934  16.6599
    16.7295  16.8307  16.9789  17.1135  17.2094  17.2107  17.4288  17.4867
    17.5060  17.5946  17.6496  17.6864  17.7269  17.7842  17.7862  17.8145
    17.9453  18.0070  18.2178  18.4443  18.4684  18.4707  18.5739  18.5983
    18.6294  18.8944  19.0020  19.3131  19.4133  19.4844  19.5271  19.5507
    19.5765  19.6242  19.6657  19.7341  19.7696  19.8112  19.8319  19.8417
    19.9677  20.0079  20.0083  20.0110  20.1103  20.1159  20.1324  20.1568
    20.2231  20.2355  20.4099  20.5145  20.5252  20.6314  20.6910  21.0023
    21.0578  21.2398

          k = 0.0000 0.2000 0.4000 (  8200 PWs)   bands (ev):

   -67.4198 -67.4056 -67.3891 -67.3690 -67.3641 -67.3621 -67.3596 -67.3591
   -67.3573 -67.3552 -67.3435 -67.2838 -67.2784 -67.2706 -67.0294 -33.6933
   -33.6789 -33.6751 -33.6669 -33.6462 -33.6445 -33.6441 -33.6312 -33.6222
   -33.6046 -33.5828 -33.5541 -33.5487 -33.5324 -33.5210 -33.5079 -33.4975
   -33.4872 -33.4783 -33.4666 -33.4534 -33.4508 -33.4395 -33.4358 -33.4337
   -33.4269 -33.4012 -33.3910 -33.3820 -33.3799 -33.3635 -33.3631 -33.3523
   -33.3239 -33.3163 -33.3002 -33.2979 -33.2948 -33.2896 -33.2804 -33.2786
   -33.2626 -33.1029 -33.1013 -33.1002   8.5549  10.9901  12.2237  13.3809
    13.4285  13.4894  14.2869  14.5741  14.6515  14.7642  14.9808  15.0199
    15.0205  15.3311  15.4397  15.5481  15.5694  15.8306  15.8802  16.0863
    16.2673  16.3422  16.3566  16.3723  16.4638  16.6100  16.6287  16.7013
    16.7203  16.8085  16.9635  16.9930  17.0521  17.0679  17.1289  17.1747
    17.1947  17.2287  17.2786  17.2916  17.4103  17.4604  17.5666  17.7790
    17.8459  18.0948  18.4087  18.5369  18.7273  18.7409  18.9010  18.9404
    18.9878  19.0217  19.1197  19.2047  19.2066  19.3224  19.3654  19.3978
    19.5205  19.6792  19.7011  19.7112  19.7576  19.8528  19.8714  19.9319
    19.9592  19.9630  19.9891  20.0236  20.0549  20.0739  20.0904  20.1075
    20.1684  20.1697  20.4070  20.4806  20.6169  20.6979  20.9719  21.0733
    21.5779  21.9131

          k = 0.0000 0.4000 0.4000 (  8162 PWs)   bands (ev):

   -67.4128 -67.4046 -67.3981 -67.3747 -67.3624 -67.3606 -67.3606 -67.3586
   -67.3541 -67.3527 -67.3452 -67.2802 -67.2778 -67.2736 -67.0293 -33.6874
   -33.6725 -33.6659 -33.6606 -33.6525 -33.6515 -33.6454 -33.6432 -33.6333
   -33.5833 -33.5618 -33.5387 -33.5233 -33.5126 -33.5062 -33.5006 -33.4969
   -33.4862 -33.4797 -33.4752 -33.4650 -33.4584 -33.4577 -33.4522 -33.4373
   -33.4345 -33.4331 -33.4284 -33.4178 -33.3933 -33.3670 -33.3507 -33.3496
   -33.3112 -33.3067 -33.2988 -33.2881 -33.2860 -33.2840 -33.2819 -33.2712
   -33.2519 -33.1025 -33.1023 -33.0996   8.7292  11.3673  11.7096  12.5830
    13.6016  13.8023  14.4101  14.6127  14.8899  14.9291  15.0732  15.2670
    15.2968  15.4106  15.4429  15.5882  15.6768  15.9226  15.9961  16.0386
    16.1920  16.2661  16.3037  16.3849  16.4179  16.4189  16.5402  16.5518
    16.6133  16.7244  16.7250  16.8263  16.9363  16.9372  16.9536  16.9647
    16.9872  17.0879  17.2038  17.2557  17.3004  17.4606  17.4651  17.7888
    17.9081  18.0743  18.2976  18.5043  18.6742  18.7432  18.8580  18.8999
    18.9455  19.0535  19.1934  19.2475  19.2488  19.3816  19.4038  19.4268
    19.4342  19.5099  19.5246  19.6043  19.7484  19.8075  19.8315  19.8598
    19.8879  19.9180  19.9421  19.9610  19.9731  20.0347  20.0455  20.1410
    20.1875  20.3955  20.5036  20.8645  20.9754  21.2314  21.4088  21.5903
    21.6226  22.0608

          k = 0.2000 0.2000 0.2000 (  8172 PWs)   bands (ev):

   -67.4254 -67.3933 -67.3933 -67.3701 -67.3636 -67.3636 -67.3613 -67.3566
   -67.3566 -67.3565 -67.3435 -67.2825 -67.2825 -67.2680 -67.0294 -33.7121
   -33.6977 -33.6977 -33.6657 -33.6657 -33.6566 -33.6125 -33.6112 -33.6112
   -33.5616 -33.5616 -33.5388 -33.5388 -33.5220 -33.5169 -33.5167 -33.5167
   -33.5038 -33.4924 -33.4564 -33.4564 -33.4518 -33.4518 -33.4258 -33.4163
   -33.4163 -33.4067 -33.4067 -33.4049 -33.3810 -33.3721 -33.3669 -33.3669
   -33.3392 -33.3136 -33.3136 -33.2908 -33.2845 -33.2845 -33.2699 -33.2628
   -33.2628 -33.1016 -33.1011 -33.1011   8.4370  11.3090  12.4802  12.4802
    13.7475  13.8981  14.1064  14.1064  14.8266  14.8266  14.8655  14.8655
    14.8952  15.3518  15.3518  15.4463  15.7956  15.7956  15.9469  16.3089
    16.3089  16.3516  16.4211  16.4487  16.4487  16.5605  16.5605  16.5731
    16.6550  16.6550  17.0504  17.0677  17.0677  17.1499  17.3064  17.3064
    17.4088  17.4088  17.4859  17.5170  17.5170  17.6388  17.6537  17.6537
    17.9136  18.0722  18.0722  18.5432  18.6101  18.6447  18.7553  18.7553
    18.8787  18.8787  19.1353  19.2803  19.3464  19.3464  19.3980  19.6066
    19.6066  19.6448  19.6629  19.6629  19.7766  19.7766  19.8571  19.8571
    19.9576  19.9576  19.9622  20.0340  20.0340  20.1252  20.1613  20.1613
    20.2525  20.2525  20.2835  20.4396  20.6020  20.6020  20.8272  21.0701
    21.0701  21.7310

          k = 0.2000 0.2000 0.4000 (  8176 PWs)   bands (ev):

   -67.4173 -67.4044 -67.3922 -67.3698 -67.3662 -67.3648 -67.3603 -67.3583
   -67.3549 -67.3522 -67.3438 -67.2823 -67.2784 -67.2715 -67.0294 -33.6879
   -33.6789 -33.6666 -33.6601 -33.6537 -33.6490 -33.6324 -33.6277 -33.6230
   -33.5988 -33.5644 -33.5603 -33.5478 -33.5344 -33.5301 -33.5091 -33.5076
   -33.4887 -33.4783 -33.4689 -33.4681 -33.4639 -33.4571 -33.4387 -33.4246
   -33.4155 -33.3972 -33.3911 -33.3826 -33.3767 -33.3719 -33.3683 -33.3521
   -33.3218 -33.3073 -33.3054 -33.2943 -33.2928 -33.2874 -33.2808 -33.2727
   -33.2638 -33.1025 -33.1010 -33.1007   8.6428  11.1543  12.2119  12.7711
    13.4349  13.7406  14.0160  14.4302  14.8819  14.9978  15.1318  15.1467
    15.1931  15.3256  15.5188  15.5859  15.6700  15.7803  15.9713  16.1315
    16.2860  16.3342  16.3625  16.3819  16.4400  16.5081  16.6104  16.6500
    16.7040  16.7306  16.8839  16.9200  16.9591  17.0271  17.0304  17.0509
    17.0883  17.1240  17.1506  17.2072  17.3008  17.3618  17.4467  17.7219
    17.8267  18.0479  18.2569  18.4688  18.7842  18.8735  18.9202  19.0209
    19.0573  19.0936  19.1494  19.1589  19.2965  19.3884  19.3972  19.5250
    19.5587  19.6308  19.6866  19.7180  19.7468  19.8459  19.8506  19.9129
    19.9369  19.9498  19.9808  19.9956  20.0083  20.0547  20.0633  20.1116
    20.1520  20.1886  20.2407  20.2698  20.3157  21.0072  21.2835  21.5134
    21.5559  22.2303

          k = 0.2000 0.4000 0.4000 (  8159 PWs)   bands (ev):

   -67.4109 -67.4034 -67.3986 -67.3737 -67.3665 -67.3650 -67.3617 -67.3602
   -67.3503 -67.3493 -67.3447 -67.2795 -67.2778 -67.2742 -67.0293 -33.6781
   -33.6673 -33.6601 -33.6532 -33.6521 -33.6441 -33.6396 -33.6315 -33.6211
   -33.5782 -33.5676 -33.5393 -33.5362 -33.5323 -33.5301 -33.5207 -33.5168
   -33.5108 -33.5009 -33.4856 -33.4718 -33.4654 -33.4621 -33.4590 -33.4130
   -33.4127 -33.4056 -33.4027 -33.3879 -33.3797 -33.3684 -33.3525 -33.3518
   -33.3120 -33.3097 -33.3019 -33.2926 -33.2888 -33.2860 -33.2779 -33.2770
   -33.2586 -33.1019 -33.1018 -33.1001   8.8070  11.5319  11.8671  12.7331
    12.8554  13.9400  14.0109  14.3958  14.7406  15.1905  15.2643  15.4671
    15.4942  15.5292  15.6760  15.6777  15.7829  15.8894  16.0142  16.1468
    16.2139  16.3143  16.3409  16.3817  16.4295  16.4554  16.5168  16.5560
    16.5842  16.6536  16.6594  16.7746  16.8520  16.8528  16.8911  16.8911
    16.9493  17.0091  17.0479  17.1102  17.1261  17.2902  17.3695  17.4925
    17.6533  18.0410  18.0513  18.2431  18.9069  19.0355  19.0392  19.1701
    19.1782  19.2510  19.2777  19.3245  19.3836  19.3883  19.4355  19.4749
    19.5290  19.5848  19.6095  19.6360  19.7580  19.7693  19.8004  19.8366
    19.8597  19.8999  19.9058  19.9391  19.9585  20.0004  20.0101  20.0286
    20.0633  20.2008  20.2883  20.3445  20.7037  20.8056  21.3787  21.7093
    22.2070  22.2950

          k = 0.4000 0.4000 0.4000 (  8186 PWs)   bands (ev):

   -67.4065 -67.4013 -67.4013 -67.3722 -67.3705 -67.3705 -67.3639 -67.3627
   -67.3462 -67.3462 -67.3443 -67.2778 -67.2778 -67.2756 -67.0294 -33.6568
   -33.6568 -33.6509 -33.6379 -33.6379 -33.6316 -33.6151 -33.6151 -33.6078
   -33.5804 -33.5804 -33.5643 -33.5606 -33.5606 -33.5533 -33.5533 -33.5416
   -33.5194 -33.5082 -33.5082 -33.5020 -33.4633 -33.4633 -33.4601 -33.3935
   -33.3792 -33.3738 -33.3738 -33.3700 -33.3700 -33.3545 -33.3545 -33.3483
   -33.3141 -33.3116 -33.3116 -33.2981 -33.2920 -33.2917 -33.2917 -33.2735
   -33.2735 -33.1010 -33.1009 -33.1009   8.9490  11.9318  12.2515  12.2515
    12.9965  13.3737  13.3737  13.9974  15.0541  15.3190  15.3190  15.8205
    15.8205  15.8820  15.9786  15.9786  16.0381  16.0405  16.0405  16.0507
    16.3990  16.3990  16.4019  16.4209  16.4374  16.4374  16.4871  16.4871
    16.5270  16.6024  16.6024  16.6563  16.6563  16.7551  16.7551  16.7787
    16.7879  16.8348  16.8348  16.8931  16.8931  16.8938  17.1153  17.1153
    17.2226  17.9213  17.9213  17.9921  19.2754  19.3604  19.3971  19.3971
    19.4667  19.4691  19.4708  19.4708  19.5280  19.5280  19.6215  19.6215
    19.6600  19.7062  19.7062  19.7146  19.7146  19.7280  19.7280  19.7973
    19.8283  19.8283  19.8376  19.8506  19.8506  19.8624  19.9101  19.9101
    19.9598  19.9825  19.9825  20.2122  20.2122  20.2485  20.7682  22.6409
    22.9889  22.9889

     the Fermi energy is    18.1291 ev

!    total energy              =   -4950.44971912 Ry
     estimated scf accuracy    <          4.9E-09 Ry
     smearing contrib. (-TS)   =       0.00046059 Ry
     internal energy E=F+TS    =   -4950.45017971 Ry

     The total energy is F=E-TS. E is the sum of the following terms:
     one-electron contribution =   -1747.01748454 Ry
     hartree contribution      =    1034.11085612 Ry
     xc contribution           =    -528.81239477 Ry
     ewald contribution        =   -2566.46174551 Ry
     one-center paw contrib.   =   -1142.26941100 Ry

     total magnetization       =    31.29 Bohr mag/cell
     absolute magnetization    =    33.31 Bohr mag/cell

     convergence has been achieved in  24 iterations

     negative rho (up, down):  0.000E+00 1.757E-03

     Forces acting on atoms (cartesian axes, Ry/au):

     atom    1 type  2   force =     0.00000000    0.00000000    0.00000000
     atom    2 type  2   force =     0.00000000    0.00000000    0.00000000
     atom    3 type  2   force =     0.00000000    0.00000000    0.00000000
     atom    4 type  2   force =     0.00000000    0.00000000    0.00000000
     atom    5 type  2   force =    -0.00047143   -0.00047143    0.00047143
     atom    6 type  2   force =    -0.00047143    0.00047143   -0.00047143
     atom    7 type  2   force =     0.00047143   -0.00047143   -0.00047143
     atom    8 type  2   force =     0.00047143    0.00047143    0.00047143
     atom    9 type  2   force =     0.00047143    0.00047143   -0.00047143
     atom   10 type  2   force =     0.00047143   -0.00047143    0.00047143
     atom   11 type  2   force =    -0.00047143    0.00047143    0.00047143
     atom   12 type  2   force =    -0.00047143   -0.00047143   -0.00047143
     atom   13 type  2   force =     0.00000000    0.00000000    0.00000000
     atom   14 type  2   force =     0.00000000    0.00000000    0.00000000
     atom   15 type  2   force =     0.00000000    0.00000000    0.00000000
     atom   16 type  1   force =     0.00000000    0.00000000    0.00000000

     Total force =     0.002310     Total SCF correction =     0.000292
     SCF correction compared to forces is large: reduce conv_thr to get better values


     Computing stress (Cartesian axis) and pressure


     negative rho (up, down):  0.000E+00 1.757E-03
          total   stress  (Ry/bohr**3)                   (kbar)     P=      -16.62
  -0.00011296   0.00000000   0.00000000          -16.62        0.00        0.00
   0.00000000  -0.00011296   0.00000000            0.00      -16.62        0.00
   0.00000000   0.00000000  -0.00011296            0.00        0.00      -16.62


     BFGS Geometry Optimization
     Energy error            =      0.0E+00 Ry
     Gradient error          =      4.7E-04 Ry/Bohr
     Cell gradient error     =      1.7E+01 kbar

     number of scf cycles    =   1
     number of bfgs steps    =   0

     enthalpy           new  =   -4950.4497191155 Ry

     new trust radius        =       0.0197305085 bohr
     new conv_thr            =       0.0000000100 Ry

     new unit-cell volume =   1210.06838 a.u.^3 (   179.31363 Ang^3 )
     density =      8.01740 g/cm^3

CELL_PARAMETERS (alat= 10.68640123)
   0.997176024   0.000000000   0.000000000
   0.000000000   0.997176024   0.000000000
   0.000000000   0.000000000   0.997176024

ATOMIC_POSITIONS (crystal)
Fe            0.5000000000        0.5000000000        0.5000000000
Fe            0.5000000000        1.0000000000        1.0000000000
Fe            1.0000000000        0.5000000000        1.0000000000
Fe            1.0000000000        1.0000000000        0.5000000000
Fe            0.2499558851        0.2499558851        0.2500441149
Fe            0.2499558851        0.7500441149        0.7499558851
Fe            0.7500441149        0.2499558851        0.7499558851
Fe            0.7500441149        0.7500441149        0.2500441149
Fe            0.7500441149        0.7500441149        0.7499558851
Fe            0.7500441149        0.2499558851        0.2500441149
Fe            0.2499558851        0.7500441149        0.2500441149
Fe            0.2499558851        0.2499558851        0.7499558851
Fe            0.0000000000        0.0000000000        0.0000000000
Fe            0.0000000000        0.5000000000        0.5000000000
Fe            0.5000000000        0.0000000000        0.5000000000
Si            0.5000000000        0.5000000000        0.0000000000



     Writing config-only to output data dir ./1Si.save/
     NEW-OLD atomic charge density approx. for the potential

     Check: negative core charge=   -0.000078

     negative rho (up, down):  0.000E+00 1.750E-03
     extrapolated charge  241.92118, renormalised to  244.00000
     Generating pointlists ...

     total cpu time spent up to now is     2413.0 secs

     per-process dynamical memory:   564.9 Mb

     Self-consistent Calculation

     iteration #  1     ecut=    54.00 Ry     beta= 0.70
     Davidson diagonalization with overlap
     c_bands:  1 eigenvalues not converged
     ethr =  1.00E-06,  avg # of iterations = 12.2

     negative rho (up, down):  0.000E+00 1.481E-03

     total cpu time spent up to now is     2706.3 secs

     total energy              =   -4949.30774172 Ry
     estimated scf accuracy    <       1.08491589 Ry

     total magnetization       =    33.03 Bohr mag/cell
     absolute magnetization    =    35.00 Bohr mag/cell

     iteration #  2     ecut=    54.00 Ry     beta= 0.70
     Davidson diagonalization with overlap
     ethr =  4.45E-04,  avg # of iterations =  6.2

     negative rho (up, down):  0.000E+00 1.578E-03

     total cpu time spent up to now is     2853.6 secs

     total energy              =   -4948.56548477 Ry
     estimated scf accuracy    <      21.95060191 Ry

     total magnetization       =    26.68 Bohr mag/cell
     absolute magnetization    =    28.04 Bohr mag/cell

     iteration #  3     ecut=    54.00 Ry     beta= 0.70
     Davidson diagonalization with overlap
     ethr =  4.45E-04,  avg # of iterations =  5.5

     negative rho (up, down):  0.000E+00 1.623E-03

     total cpu time spent up to now is     2979.3 secs

     total energy              =   -4949.54034497 Ry
     estimated scf accuracy    <      21.41964228 Ry

     total magnetization       =    27.37 Bohr mag/cell
     absolute magnetization    =    28.76 Bohr mag/cell

     iteration #  4     ecut=    54.00 Ry     beta= 0.70
     Davidson diagonalization with overlap
     ethr =  4.45E-04,  avg # of iterations =  3.9

     negative rho (up, down):  0.000E+00 1.645E-03

     total cpu time spent up to now is     3077.2 secs

     total energy              =   -4950.49213911 Ry
     estimated scf accuracy    <       0.88257440 Ry

     total magnetization       =    30.58 Bohr mag/cell
     absolute magnetization    =    32.41 Bohr mag/cell

     iteration #  5     ecut=    54.00 Ry     beta= 0.70
     Davidson diagonalization with overlap
     ethr =  3.62E-04,  avg # of iterations =  1.1

     negative rho (up, down):  0.000E+00 1.681E-03

     total cpu time spent up to now is     3147.5 secs

     total energy              =   -4950.47670356 Ry
     estimated scf accuracy    <       0.73407961 Ry

     total magnetization       =    30.70 Bohr mag/cell
     absolute magnetization    =    32.56 Bohr mag/cell

     iteration #  6     ecut=    54.00 Ry     beta= 0.70
     Davidson diagonalization with overlap
     ethr =  3.01E-04,  avg # of iterations =  1.2

     negative rho (up, down):  0.000E+00 1.691E-03

     total cpu time spent up to now is     3218.9 secs

     total energy              =   -4950.48605135 Ry
     estimated scf accuracy    <       0.31864768 Ry

     total magnetization       =    30.87 Bohr mag/cell
     absolute magnetization    =    32.75 Bohr mag/cell

     iteration #  7     ecut=    54.00 Ry     beta= 0.70
     Davidson diagonalization with overlap
     ethr =  1.31E-04,  avg # of iterations =  1.1

     negative rho (up, down):  0.000E+00 1.705E-03

     total cpu time spent up to now is     3289.4 secs

     total energy              =   -4950.47154096 Ry
     estimated scf accuracy    <       0.26475400 Ry

     total magnetization       =    30.87 Bohr mag/cell
     absolute magnetization    =    32.78 Bohr mag/cell

     iteration #  8     ecut=    54.00 Ry     beta= 0.70
     Davidson diagonalization with overlap
     ethr =  1.09E-04,  avg # of iterations =  1.1

     negative rho (up, down):  0.000E+00 1.707E-03

     total cpu time spent up to now is     3359.3 secs

     total energy              =   -4950.46321157 Ry
     estimated scf accuracy    <       0.16378756 Ry

     total magnetization       =    30.89 Bohr mag/cell
     absolute magnetization    =    32.83 Bohr mag/cell

     iteration #  9     ecut=    54.00 Ry     beta= 0.70
     Davidson diagonalization with overlap
     ethr =  6.71E-05,  avg # of iterations =  1.1

     negative rho (up, down):  0.000E+00 1.705E-03

     total cpu time spent up to now is     3429.6 secs

     total energy              =   -4950.45999171 Ry
     estimated scf accuracy    <       0.10400009 Ry

     total magnetization       =    30.89 Bohr mag/cell
     absolute magnetization    =    32.87 Bohr mag/cell

     iteration # 10     ecut=    54.00 Ry     beta= 0.70
     Davidson diagonalization with overlap
     ethr =  4.26E-05,  avg # of iterations =  1.1

     negative rho (up, down):  0.000E+00 1.671E-03

     total cpu time spent up to now is     3500.5 secs

     total energy              =   -4950.43512881 Ry
     estimated scf accuracy    <       0.07548593 Ry

     total magnetization       =    30.89 Bohr mag/cell
     absolute magnetization    =    32.88 Bohr mag/cell

     iteration # 11     ecut=    54.00 Ry     beta= 0.70
     Davidson diagonalization with overlap
     ethr =  3.09E-05,  avg # of iterations =  3.3

     negative rho (up, down):  0.000E+00 1.675E-03

     total cpu time spent up to now is     3591.1 secs

     total energy              =   -4950.44845374 Ry
     estimated scf accuracy    <       0.00030447 Ry

     total magnetization       =    31.06 Bohr mag/cell
     absolute magnetization    =    33.07 Bohr mag/cell

     iteration # 12     ecut=    54.00 Ry     beta= 0.70
     Davidson diagonalization with overlap
     ethr =  1.25E-07,  avg # of iterations =  9.4

     negative rho (up, down):  0.000E+00 1.680E-03

     total cpu time spent up to now is     3846.4 secs

     total energy              =   -4950.45022477 Ry
     estimated scf accuracy    <       0.00073017 Ry

     total magnetization       =    31.06 Bohr mag/cell
     absolute magnetization    =    33.06 Bohr mag/cell

     iteration # 13     ecut=    54.00 Ry     beta= 0.70
     Davidson diagonalization with overlap
     ethr =  1.25E-07,  avg # of iterations =  2.3

     negative rho (up, down):  0.000E+00 1.684E-03

     total cpu time spent up to now is     3934.9 secs

     total energy              =   -4950.45026200 Ry
     estimated scf accuracy    <       0.00010191 Ry

     total magnetization       =    31.04 Bohr mag/cell
     absolute magnetization    =    33.04 Bohr mag/cell

     iteration # 14     ecut=    54.00 Ry     beta= 0.70
     Davidson diagonalization with overlap
     ethr =  4.18E-08,  avg # of iterations =  2.4

     negative rho (up, down):  0.000E+00 1.684E-03

     total cpu time spent up to now is     4016.3 secs

     total energy              =   -4950.45026584 Ry
     estimated scf accuracy    <       0.00002258 Ry

     total magnetization       =    31.04 Bohr mag/cell
     absolute magnetization    =    33.03 Bohr mag/cell

     iteration # 15     ecut=    54.00 Ry     beta= 0.70
     Davidson diagonalization with overlap
     ethr =  9.25E-09,  avg # of iterations =  3.2

     negative rho (up, down):  0.000E+00 1.683E-03

     total cpu time spent up to now is     4103.5 secs

     total energy              =   -4950.45026837 Ry
     estimated scf accuracy    <       0.00000594 Ry

     total magnetization       =    31.03 Bohr mag/cell
     absolute magnetization    =    33.02 Bohr mag/cell

     iteration # 16     ecut=    54.00 Ry     beta= 0.70
     Davidson diagonalization with overlap
     ethr =  2.43E-09,  avg # of iterations =  2.5

     negative rho (up, down):  0.000E+00 1.683E-03

     total cpu time spent up to now is     4192.8 secs

     total energy              =   -4950.45026846 Ry
     estimated scf accuracy    <       0.00000656 Ry

     total magnetization       =    31.03 Bohr mag/cell
     absolute magnetization    =    33.02 Bohr mag/cell

     iteration # 17     ecut=    54.00 Ry     beta= 0.70
     Davidson diagonalization with overlap
     ethr =  2.43E-09,  avg # of iterations =  1.4

     negative rho (up, down):  0.000E+00 1.682E-03

     total cpu time spent up to now is     4268.5 secs

     total energy              =   -4950.45026852 Ry
     estimated scf accuracy    <       0.00000251 Ry

     total magnetization       =    31.03 Bohr mag/cell
     absolute magnetization    =    33.02 Bohr mag/cell

     iteration # 18     ecut=    54.00 Ry     beta= 0.70
     Davidson diagonalization with overlap
     ethr =  1.03E-09,  avg # of iterations =  2.1

     negative rho (up, down):  0.000E+00 1.681E-03

     total cpu time spent up to now is     4353.2 secs

     total energy              =   -4950.45026860 Ry
     estimated scf accuracy    <       0.00000109 Ry

     total magnetization       =    31.03 Bohr mag/cell
     absolute magnetization    =    33.02 Bohr mag/cell

     iteration # 19     ecut=    54.00 Ry     beta= 0.70
     Davidson diagonalization with overlap
     ethr =  4.46E-10,  avg # of iterations =  2.2

     negative rho (up, down):  0.000E+00 1.681E-03

     total cpu time spent up to now is     4443.0 secs

     total energy              =   -4950.45026866 Ry
     estimated scf accuracy    <       0.00000057 Ry

     total magnetization       =    31.03 Bohr mag/cell
     absolute magnetization    =    33.02 Bohr mag/cell

     iteration # 20     ecut=    54.00 Ry     beta= 0.70
     Davidson diagonalization with overlap
     ethr =  2.35E-10,  avg # of iterations =  2.1

     negative rho (up, down):  0.000E+00 1.680E-03

     total cpu time spent up to now is     4530.5 secs

     total energy              =   -4950.45026869 Ry
     estimated scf accuracy    <       0.00000022 Ry

     total magnetization       =    31.03 Bohr mag/cell
     absolute magnetization    =    33.02 Bohr mag/cell

     iteration # 21     ecut=    54.00 Ry     beta= 0.70
     Davidson diagonalization with overlap
     ethr =  9.22E-11,  avg # of iterations =  4.0

     negative rho (up, down):  0.000E+00 1.680E-03

     total cpu time spent up to now is     4646.5 secs

     total energy              =   -4950.45026875 Ry
     estimated scf accuracy    <       0.00000003 Ry

     total magnetization       =    31.03 Bohr mag/cell
     absolute magnetization    =    33.02 Bohr mag/cell

     iteration # 22     ecut=    54.00 Ry     beta= 0.70
!/ Arthur here, seems to stay around this neighbourhood, way
above -4950.581 which is the weighted sum
